 
:: initializing oneAPI environment ...
   slurm_script: BASH_VERSION = 4.2.46(1)-release
   args: Using "$@" for setvars.sh arguments: --force
:: advisor -- latest
:: ccl -- latest
:: clck -- latest
:: compiler -- latest
:: dal -- latest
:: debugger -- latest
:: dev-utilities -- latest
:: dnnl -- latest
:: dpcpp-ct -- latest
:: dpl -- latest
:: inspector -- latest
:: intelpython -- latest
:: ipp -- latest
:: ippcp -- latest
:: ipp -- latest
:: itac -- latest
:: mkl -- latest
:: mpi -- latest
:: tbb -- latest
:: vpl -- latest
:: vtune -- latest
:: oneAPI environment initialized ::
 
SLURM_CPUS_PER_TASK = 28
SLURM_MEM_PER_NODE = 127949
#INFO: **** input file is /home/yangjunjie/work/py-ch3-cl/work/step_3/main.py ****
import sys
import pyscf
from pyscf import tdscf

def main(xyz_file, basis="631g*", xc="b3lyp", output="ene.out"):
    xyz = None

    with open(xyz_file, "r") as xyz:
        xyz = xyz.readlines()[2:]
        xyz = "".join(xyz)

    mol = pyscf.gto.Mole()
    mol.atom = xyz
    mol.basis = basis
    mol.verbose = 5
    mol.build()

    if xc is not None and xc != "hf":
        mf = pyscf.scf.RKS(mol)
        mf.xc = xc
        mf.kernel()
    else:
        mf = pyscf.scf.RHF(mol)
        mf.kernel()

    ene_mf = mf.e_tot

    tda = pyscf.tdscf.TDA(mf)
    tda.nstates = 10
    tda.kernel()
    ene_tda = tda.e[:5]
    dip_tda = tda.transition_dipole()[:5]

    rpa = pyscf.tdscf.RPA(mf)
    rpa.nstates = 10
    rpa.kernel()
    ene_rpa = rpa.e[:5]
    dip_rpa = rpa.transition_dipole()[:5]

    with open(output, "w") as f:
        f.write(f"RKS energy: {ene_mf: 12.8f}\n")
        f.write("TDA results:\n")
        for i, (ene, dip) in enumerate(zip(ene_tda, dip_tda)):
            f.write(f" {i:2d} {ene: 12.8f} {dip[0]: 12.8f} {dip[1]: 12.8f} {dip[2]: 12.8f}\n")
        
        f.write("\nRPA results:\n")
        for i, (ene, dip) in enumerate(zip(ene_rpa, dip_rpa)):
            f.write(f" {i:2d} {ene: 12.8f} {dip[0]: 12.8f} {dip[1]: 12.8f} {dip[2]: 12.8f}\n")

if __name__ == "__main__":
    xyz = sys.argv[1]
    main(xyz, basis="631g*", xc="b3lyp", output="out.log")
#INFO: ******************** input file end ********************


System: uname_result(system='Linux', node='pauling040', release='3.10.0-327.36.3.el7.x86_64', version='#1 SMP Thu Oct 20 04:56:07 EDT 2016', machine='x86_64')  Threads 28
Python 3.9.7 (default, Oct 27 2021, 01:23:21) 
[GCC 9.3.0]
numpy 1.21.2  scipy 1.6.2
Date: Tue Sep 27 23:12:17 2022
PySCF version 2.0.1
PySCF path  /home/yangjunjie/packages/pyscf/pyscf-main
GIT ORIG_HEAD 14b880cdc4bf7bb64f3989a147c0b04622efc498
GIT HEAD (branch master) 9d5b5bd309d1cc55fbd1a0ec76e26b5b0c7f76af

[ENV] PYSCF_MAX_MEMORY 127949
[ENV] PYSCF_TMPDIR /scratch/global/yangjunjie/
[CONFIG] conf_file /home/yangjunjie/.pyscf_conf.py
[INPUT] verbose = 5
[INPUT] max_memory = 127949 
[INPUT] num. atoms = 16
[INPUT] num. electrons = 68
[INPUT] charge = 0
[INPUT] spin (= nelec alpha-beta = 2S) = 0
[INPUT] symmetry False subgroup None
[INPUT] Mole.unit = angstrom
[INPUT]  1 C      0.000000010000   1.171824040000   1.010241730000 AA    0.000000018897   2.214426501781   1.909080189307 Bohr
[INPUT]  2 C      0.000000000000   1.190123310000   2.393081920000 AA    0.000000000000   2.249007110361   4.522269422448 Bohr
[INPUT]  3 C      0.000000000000  -0.011724500000   3.099065820000 AA    0.000000000000  -0.022156093947   5.856385641801 Bohr
[INPUT]  4 C     -0.000000010000  -1.202946790000   2.370612810000 AA   -0.000000018897  -2.273239975525   4.479808958286 Bohr
[INPUT]  5 C      0.000000000000  -1.159022880000   0.991221800000 AA    0.000000000000  -2.190235815305   1.873137730698 Bohr
[INPUT]  6 N      0.000000010000   0.012647710000   0.305583680000 AA    0.000000018897   0.023900708003   0.577469463337 Bohr
[INPUT]  7 C     -0.000000010000   0.007794780000  -1.285576770000 AA   -0.000000018897   0.014729999401  -2.429388007403 Bohr
[INPUT]  8 H      0.000000020000   2.076959020000   0.421303840000 AA    0.000000037795   3.924883719745   0.796148872828 Bohr
[INPUT]  9 H      0.000000000000   2.139921770000   2.919277050000 AA    0.000000000000   4.043866073295   5.516634106228 Bohr
[INPUT] 10 H     -0.000000010000  -0.021967380000   4.182323840000 AA   -0.000000018897  -0.041512331874   7.903446621839 Bohr
[INPUT] 11 H     -0.000000020000  -2.161659890000   2.880118190000 AA   -0.000000037795  -4.084945166557   5.442634585478 Bohr
[INPUT] 12 H      0.000000000000  -2.052203500000   0.382303350000 AA    0.000000000000  -3.878102566874   0.722448628004 Bohr
[INPUT] 13 H     -0.000000020000   1.042276230000  -1.629592820000 AA   -0.000000037795   1.969616620844  -3.079484124358 Bohr
[INPUT] 14 H     -0.900944380000  -0.513147590000  -1.624057250000 AA   -1.702538131666  -0.969708406581  -3.069023413114 Bohr
[INPUT] 15 H      0.900944420000  -0.513147550000  -1.624057260000 AA    1.702538207255  -0.969708330992  -3.069023432012 Bohr
[INPUT] 16 Cl    -0.000000010000   0.002535820000  -4.018104420000 AA   -0.000000018897   0.004792005301  -7.593116893704 Bohr
[INPUT] ---------------- BASIS SET ---------------- 
[INPUT] l, kappa, [nprim/nctr], expnt,             c_1 c_2 ...
[INPUT] Cl
[INPUT] 0    0    [6    /1   ]  25180.1           0.001833
                                3780.35           0.014034
                                860.474           0.069097
                                242.145           0.237452
                                77.3349           0.483034
                                26.247            0.339856
[INPUT] 0    0    [6    /1   ]  491.765           -0.0022974
                                116.984           -0.030714
                                37.4153           -0.112528
                                13.7834           0.045016
                                5.45215           0.589353
                                2.22588           0.465206
[INPUT] 0    0    [3    /1   ]  3.18649           -0.25183
                                1.14427           0.061589
                                0.420377          1.06018
[INPUT] 0    0    [1    /1   ]  0.142657             1
[INPUT] 1    0    [6    /1   ]  491.765           0.0039894
                                116.984           0.030318
                                37.4153           0.12988
                                13.7834           0.327951
                                5.45215           0.453527
                                2.22588           0.252154
[INPUT] 1    0    [3    /1   ]  3.18649           -0.014299
                                1.14427           0.323572
                                0.420377          0.743507
[INPUT] 1    0    [1    /1   ]  0.142657             1
[INPUT] 2    0    [1    /1   ]  0.75                 1
[INPUT] N
[INPUT] 0    0    [6    /1   ]  4173.511          0.0018348
                                627.4579          0.013995
                                142.9021          0.068587
                                40.23433          0.232241
                                12.82021          0.46907
                                4.390437          0.360455
[INPUT] 0    0    [3    /1   ]  11.626358         -0.114961
                                2.71628           -0.169118
                                0.772218          1.145852
[INPUT] 0    0    [1    /1   ]  0.2120313            1
[INPUT] 1    0    [3    /1   ]  11.626358         0.06758
                                2.71628           0.323907
                                0.772218          0.740895
[INPUT] 1    0    [1    /1   ]  0.2120313            1
[INPUT] 2    0    [1    /1   ]  0.8                  1
[INPUT] H
[INPUT] 0    0    [3    /1   ]  18.731137         0.0334946
                                2.8253937         0.23472695
                                0.6401217         0.81375733
[INPUT] 0    0    [1    /1   ]  0.1612778            1
[INPUT] C
[INPUT] 0    0    [6    /1   ]  3047.5249         0.0018347
                                457.36951         0.0140373
                                103.94869         0.0688426
                                29.210155         0.2321844
                                9.286663          0.4679413
                                3.163927          0.362312
[INPUT] 0    0    [3    /1   ]  7.8682724         -0.1193324
                                1.8812885         -0.1608542
                                0.5442493         1.1434564
[INPUT] 0    0    [1    /1   ]  0.1687144            1
[INPUT] 1    0    [3    /1   ]  7.8682724         0.0689991
                                1.8812885         0.316424
                                0.5442493         0.7443083
[INPUT] 1    0    [1    /1   ]  0.1687144            1
[INPUT] 2    0    [1    /1   ]  0.8                  1

nuclear repulsion = 379.447975805422
number of shells = 66
number of NR pGTOs = 272
number of NR cGTOs = 132
basis = 631g*
ecp = {}
CPU time:         0.36


******** <class 'pyscf.dft.rks.RKS'> ********
method = RKS
initial guess = minao
damping factor = 0
level_shift factor = 0
DIIS = <class 'pyscf.scf.diis.CDIIS'>
diis_start_cycle = 1
diis_space = 8
SCF conv_tol = 1e-09
SCF conv_tol_grad = None
SCF max_cycles = 50
direct_scf = True
direct_scf_tol = 1e-13
chkfile to save SCF result = /scratch/global/yangjunjie/tmpd8ur1ewo
max_memory 127949 MB (current use 81 MB)
XC library pyscf.dft.libxc version 5.2.0
    S. Lehtola, C. Steigemann, M. J. Oliveira, and M. A. Marques, SoftwareX 7, 1 (2018)
XC functionals = b3lyp
    P. A. M. Dirac, Math. Proc. Cambridge Philos. Soc. 26, 376 (1930)
    F. Bloch, Z. Phys. 57, 545 (1929)
    A. D. Becke, Phys. Rev. A 38, 3098 (1988)
    C. Lee, W. Yang, and R. G. Parr, Phys. Rev. B 37, 785 (1988)
    B. Miehlich, A. Savin, H. Stoll, and H. Preuss, Chem. Phys. Lett. 157, 200 (1989)
    S. H. Vosko, L. Wilk, and M. Nusair, Can. J. Phys. 58, 1200 (1980)
radial grids: 
    Treutler-Ahlrichs [JCP 102, 346 (1995); DOI:10.1063/1.469408] (M4) radial grids
    
becke partition: Becke, JCP 88, 2547 (1988); DOI:10.1063/1.454033
pruning grids: <function nwchem_prune at 0x7fc5ad319ee0>
grids dens level: 3
symmetrized grids: False
atomic radii adjust function: <function treutler_atomic_radii_adjust at 0x7fc5ad319e50>
small_rho_cutoff = 1e-07
Set gradient conv threshold to 3.16228e-05
atom C rad-grids = 75, ang-grids = [ 50  50  50  50  50  50  50  50  50  50  50  50  50  50  50  50  50  50
  50  50  50  50  50  86  86  86  86  86  86  86  86  86  86 266 266 266
 266 266 266 266 302 302 302 302 302 302 302 302 302 302 302 302 302 302
 302 302 302 302 302 302 266 266 266 266 266 266 266 266 266 266 266 266
 266 266 266]
atom N rad-grids = 75, ang-grids = [ 50  50  50  50  50  50  50  50  50  50  50  50  50  50  50  50  50  50
  50  50  50  50  50  86  86  86  86  86  86  86  86  86 266 266 266 266
 266 266 266 302 302 302 302 302 302 302 302 302 302 302 302 302 302 302
 302 302 302 302 266 266 266 266 266 266 266 266 266 266 266 266 266 266
 266 266 266]
atom H rad-grids = 50, ang-grids = [ 50  50  50  50  50  50  50  50  50  50  50  50  50  50  86  86  86  86
 266 266 266 266 302 302 302 302 302 302 302 302 302 302 302 302 302 266
 266 266 266 266 266 266 266 266 266 266 266 266 266 266]
atom Cl rad-grids = 80, ang-grids = [ 50  50  50  50  50  50  50  50  50  50  50  50  50  50  50  50  50  50
  50  50  50  50  50  50  86  86  86  86  86  86  86  86  86  86  86  86
  86 350 350 350 350 350 350 350 350 350 434 434 434 434 434 434 434 434
 434 434 434 434 434 434 434 434 434 434 350 350 350 350 350 350 350 350
 350 350 350 350 350 350 350 350]
tot grids = 196530
Drop grids 33576
    CPU time for setting up grids      3.47 sec, wall time      0.19 sec
nelec by numeric integration = 67.97675138884946
    CPU time for vxc      6.25 sec, wall time      0.24 sec
E1 = -1772.1955197713526  Ecoul = 714.1341638981035  Exc = -70.35699500756732
init E= -748.970375075395
cond(S) = 6577.501609285953
    CPU time for initialize scf     17.06 sec, wall time      0.76 sec
  HOMO = -0.29623149584297  LUMO = -0.107327274492756
  mo_energy =
[-1.01593456e+02 -1.44120376e+01 -1.02918153e+01 -1.02913159e+01
 -1.02897243e+01 -1.02846363e+01 -1.02844420e+01 -1.02808850e+01
 -9.53314315e+00 -7.28874502e+00 -7.28872037e+00 -7.28871905e+00
 -1.10672003e+00 -9.52690361e-01 -8.87665142e-01 -8.48825044e-01
 -7.99301565e-01 -7.10988085e-01 -7.04396655e-01 -5.79366048e-01
 -5.36147819e-01 -5.15668367e-01 -4.77286800e-01 -4.76591803e-01
 -4.68211378e-01 -4.34764601e-01 -4.13736272e-01 -3.96668519e-01
 -3.93428589e-01 -3.55538175e-01 -3.54417183e-01 -3.44226879e-01
 -3.18323682e-01 -2.96231496e-01 -1.07327274e-01 -7.74664971e-02
  2.04395068e-02  6.03090729e-02  7.61590856e-02  8.19132870e-02
  9.24280156e-02  1.16400621e-01  1.27608842e-01  1.35965757e-01
  1.38351048e-01  1.54754198e-01  2.18165666e-01  2.32885536e-01
  2.54831628e-01  2.66141472e-01  3.37985154e-01  3.80934737e-01
  4.06109668e-01  4.19858430e-01  4.23298060e-01  4.54641345e-01
  4.70696944e-01  4.71618718e-01  4.97530865e-01  5.21812282e-01
  5.28958102e-01  5.41743024e-01  5.41958572e-01  5.52677173e-01
  5.66437295e-01  5.68161897e-01  5.87015822e-01  6.13920659e-01
  6.39091241e-01  6.68431889e-01  7.10229880e-01  7.60275414e-01
  7.71108772e-01  7.73839000e-01  7.73842272e-01  7.82121131e-01
  8.01744243e-01  8.07884200e-01  8.11735048e-01  8.23552328e-01
  8.58451970e-01  8.64556610e-01  8.92982866e-01  8.98763997e-01
  9.09875816e-01  9.48968180e-01  9.81075582e-01  1.01860267e+00
  1.04426369e+00  1.07603050e+00  1.12196105e+00  1.15826501e+00
  1.17674963e+00  1.20663777e+00  1.29289389e+00  1.34337943e+00
  1.36511413e+00  1.40546816e+00  1.40794690e+00  1.41500179e+00
  1.44197822e+00  1.48919370e+00  1.66331707e+00  1.71972438e+00
  1.72254839e+00  1.79458818e+00  1.82330463e+00  1.85494619e+00
  1.86329693e+00  1.90278801e+00  1.97322137e+00  2.06073097e+00
  2.07294380e+00  2.08438625e+00  2.09133915e+00  2.11130815e+00
  2.15763376e+00  2.22282472e+00  2.23333289e+00  2.24153929e+00
  2.32316153e+00  2.34016808e+00  2.49593488e+00  2.50819799e+00
  2.60463317e+00  2.60525879e+00  2.66672303e+00  2.67093062e+00
  2.68134258e+00  2.76964186e+00  2.95158117e+00  3.32888075e+00]
nelec by numeric integration = 68.00013329513014
    CPU time for vxc      5.91 sec, wall time      0.21 sec
E1 = -1778.8966847490158  Ecoul = 722.2272732691199  Exc = -70.75749673784176
cycle= 1 E= -747.978932412316  delta_E= 0.991  |g|= 0.57  |ddm|= 3.83
    CPU time for cycle= 1      6.41 sec, wall time      0.23 sec
  HOMO = -0.0360441246988797  LUMO = -0.0141594472707602
  mo_energy =
[-1.00951046e+02 -1.46822051e+01 -1.03641675e+01 -1.03613170e+01
 -1.02172680e+01 -1.01974686e+01 -1.01966606e+01 -1.01964818e+01
 -8.94391949e+00 -6.69510318e+00 -6.69487135e+00 -6.69485930e+00
 -1.15510210e+00 -8.94340185e-01 -8.88979115e-01 -7.76888369e-01
 -7.49287439e-01 -7.10789852e-01 -6.15881048e-01 -5.91141219e-01
 -5.82100534e-01 -5.53845091e-01 -5.31823448e-01 -5.22772488e-01
 -4.47085873e-01 -4.33957304e-01 -4.32719205e-01 -4.20750685e-01
 -4.20690421e-01 -3.68748298e-01 -3.61432365e-01 -1.53868984e-01
 -9.56568500e-02 -3.60441247e-02 -1.41594473e-02 -1.32529185e-02
  1.91557741e-02  5.55783093e-02  5.93833998e-02  6.18273118e-02
  8.06860386e-02  1.03437830e-01  1.07261690e-01  1.33780056e-01
  1.46616786e-01  1.75845528e-01  1.83183579e-01  2.08125037e-01
  2.35181900e-01  2.55036976e-01  3.50550122e-01  3.70484277e-01
  4.03228040e-01  4.29703972e-01  4.50422016e-01  4.86398715e-01
  4.86990525e-01  5.01404392e-01  5.22068369e-01  5.29807760e-01
  5.53361511e-01  5.58166175e-01  5.72664604e-01  5.89270599e-01
  6.10585234e-01  6.54623960e-01  6.74361129e-01  7.03501941e-01
  7.13768923e-01  7.34001398e-01  7.36859977e-01  7.40111901e-01
  7.50378423e-01  7.82570990e-01  7.88539961e-01  8.30066681e-01
  8.41855055e-01  8.60994243e-01  8.88470555e-01  9.04778452e-01
  9.14806440e-01  9.29990765e-01  9.92044662e-01  1.01294708e+00
  1.01624400e+00  1.10017594e+00  1.11918147e+00  1.12520702e+00
  1.14248871e+00  1.22327163e+00  1.23415440e+00  1.23497727e+00
  1.24597693e+00  1.25120942e+00  1.28575553e+00  1.34589499e+00
  1.36365845e+00  1.36803202e+00  1.39285834e+00  1.41029738e+00
  1.41434417e+00  1.41748683e+00  1.60670259e+00  1.66997340e+00
  1.71590630e+00  1.77428274e+00  1.82203594e+00  1.84668916e+00
  1.85109780e+00  1.90160629e+00  1.96131412e+00  2.02067468e+00
  2.02506171e+00  2.06327293e+00  2.07408773e+00  2.08695155e+00
  2.17166959e+00  2.21397631e+00  2.23305741e+00  2.26543234e+00
  2.28580763e+00  2.32857287e+00  2.47024779e+00  2.48060937e+00
  2.57512889e+00  2.59335218e+00  2.64924881e+00  2.65163471e+00
  2.65884755e+00  2.74351949e+00  2.92562021e+00  3.31089972e+00]
nelec by numeric integration = 68.00019337679083
    CPU time for vxc      6.27 sec, wall time      0.22 sec
E1 = -1776.065791545358  Ecoul = 724.7831872161139  Exc = -70.51886033543636
cycle= 2 E= -742.353488859259  delta_E= 5.63  |g|= 2.92  |ddm|= 5.07
    CPU time for cycle= 2      6.79 sec, wall time      0.24 sec
  HOMO = -0.163236454667766  LUMO = -0.0735220495646182
  mo_energy =
[-1.01250529e+02 -1.45203876e+01 -1.02453823e+01 -1.02437887e+01
 -1.01857511e+01 -1.01397004e+01 -1.01174809e+01 -1.01174524e+01
 -9.21146131e+00 -6.96585769e+00 -6.96584513e+00 -6.96452347e+00
 -1.04349257e+00 -8.10121856e-01 -7.98027404e-01 -7.24740201e-01
 -6.63585373e-01 -6.39025086e-01 -6.18355951e-01 -5.55043213e-01
 -5.08516026e-01 -4.94338460e-01 -4.91837830e-01 -4.57562638e-01
 -4.56807356e-01 -4.13093049e-01 -4.00210713e-01 -3.72558324e-01
 -3.63889957e-01 -2.97900854e-01 -2.78941942e-01 -1.66506565e-01
 -1.63551025e-01 -1.63236455e-01 -7.35220496e-02 -2.38025468e-02
  5.20130533e-02  1.06817619e-01  1.11377342e-01  1.20746219e-01
  1.25810032e-01  1.27064136e-01  1.57923236e-01  1.60166020e-01
  1.74113247e-01  1.78552010e-01  2.48430384e-01  2.63883848e-01
  2.99455425e-01  3.11761090e-01  4.01220196e-01  4.39460334e-01
  4.66430343e-01  4.76262515e-01  5.02323859e-01  5.36080678e-01
  5.38474120e-01  5.52247944e-01  5.65809710e-01  5.67423489e-01
  5.77393888e-01  5.93187427e-01  6.00625517e-01  6.19201446e-01
  6.25198168e-01  6.30605862e-01  6.53437639e-01  6.62583173e-01
  7.14685161e-01  7.25865192e-01  7.55324253e-01  7.97888469e-01
  7.98544798e-01  8.08692090e-01  8.43286002e-01  8.48183863e-01
  8.73356533e-01  8.89703852e-01  9.16679183e-01  9.41859478e-01
  9.52483901e-01  9.85521212e-01  9.99457287e-01  1.04323808e+00
  1.04358498e+00  1.05499222e+00  1.06011139e+00  1.07484100e+00
  1.08800600e+00  1.14657992e+00  1.16179239e+00  1.18632618e+00
  1.21896644e+00  1.28342621e+00  1.31063797e+00  1.35160863e+00
  1.42659670e+00  1.43015852e+00  1.45757141e+00  1.48662872e+00
  1.48798365e+00  1.49868333e+00  1.68814840e+00  1.73083586e+00
  1.78879965e+00  1.84832040e+00  1.86478344e+00  1.90596907e+00
  1.92726077e+00  1.96646277e+00  2.04594367e+00  2.10903233e+00
  2.10966068e+00  2.14552217e+00  2.14555994e+00  2.16632823e+00
  2.23066679e+00  2.28370606e+00  2.29622700e+00  2.30315192e+00
  2.35441900e+00  2.38718354e+00  2.55331822e+00  2.56112138e+00
  2.66004848e+00  2.67217832e+00  2.73605668e+00  2.73776667e+00
  2.74191076e+00  2.81109369e+00  3.00916687e+00  3.39566628e+00]
nelec by numeric integration = 68.0001476302318
    CPU time for vxc      6.01 sec, wall time      0.24 sec
E1 = -1773.632308400503  Ecoul = 716.4758259765719  Exc = -70.30350474614588
cycle= 3 E= -748.012011364655  delta_E= -5.66  |g|= 0.516  |ddm|=  4.6
    CPU time for cycle= 3      6.56 sec, wall time      0.27 sec
  HOMO = -0.13068268981916  LUMO = -0.11394628225784
  mo_energy =
[-1.01253452e+02 -1.44412337e+01 -1.02951172e+01 -1.02935489e+01
 -1.02919264e+01 -1.02740249e+01 -1.02736020e+01 -1.02115372e+01
 -9.20011338e+00 -6.95556128e+00 -6.95556015e+00 -6.95526398e+00
 -1.04098240e+00 -8.94800246e-01 -8.43345521e-01 -7.43345411e-01
 -7.13773882e-01 -6.88111901e-01 -6.01103025e-01 -5.81368129e-01
 -5.65174491e-01 -5.41568125e-01 -5.06844838e-01 -4.96951583e-01
 -4.94628654e-01 -4.39764515e-01 -4.26005394e-01 -4.17915215e-01
 -4.10178916e-01 -3.55416598e-01 -3.38383850e-01 -1.34185655e-01
 -1.31315512e-01 -1.30682690e-01 -1.13946282e-01 -8.31990147e-02
  2.69577569e-02  6.32252658e-02  8.06750758e-02  8.61882327e-02
  1.08370288e-01  1.20497137e-01  1.27510525e-01  1.42970289e-01
  1.68413869e-01  1.84100589e-01  2.19664733e-01  2.25272431e-01
  2.49669504e-01  2.69075171e-01  3.72399761e-01  3.94684964e-01
  4.37948342e-01  4.58416085e-01  4.86349113e-01  4.91434166e-01
  5.06953498e-01  5.20511841e-01  5.23030296e-01  5.32345776e-01
  5.36164496e-01  5.64834540e-01  5.68723148e-01  5.69874794e-01
  5.97881820e-01  6.02705205e-01  6.09372640e-01  6.67481457e-01
  6.81381615e-01  7.28604711e-01  7.48918923e-01  7.64376823e-01
  7.66171463e-01  7.88589462e-01  7.97789441e-01  8.06962710e-01
  8.48249530e-01  8.56746280e-01  8.99723668e-01  9.02554777e-01
  9.18821541e-01  9.65823849e-01  9.87356143e-01  1.02388489e+00
  1.03735302e+00  1.07946504e+00  1.07948529e+00  1.09310954e+00
  1.09877920e+00  1.10731660e+00  1.14629946e+00  1.15288683e+00
  1.16634549e+00  1.29064167e+00  1.30350191e+00  1.32480212e+00
  1.36643018e+00  1.39316619e+00  1.39639374e+00  1.39933892e+00
  1.42966084e+00  1.47122733e+00  1.64984390e+00  1.73165840e+00
  1.73579954e+00  1.78674099e+00  1.85312857e+00  1.85553877e+00
  1.87421007e+00  1.91648638e+00  1.97411687e+00  2.05491513e+00
  2.06580191e+00  2.08784468e+00  2.09856625e+00  2.10575648e+00
  2.18326248e+00  2.23171607e+00  2.24879406e+00  2.27920183e+00
  2.32759736e+00  2.36138555e+00  2.49134687e+00  2.50508056e+00
  2.60231394e+00  2.60299604e+00  2.67412788e+00  2.67775947e+00
  2.68339576e+00  2.78264443e+00  2.95418960e+00  3.33537999e+00]
nelec by numeric integration = 68.00014291052247
    CPU time for vxc      6.00 sec, wall time      0.21 sec
E1 = -1774.6075166255505  Ecoul = 717.4533522976091  Exc = -70.37597730191608
cycle= 4 E= -748.082165824436  delta_E= -0.0702  |g|= 0.154  |ddm|= 0.808
    CPU time for cycle= 4      6.51 sec, wall time      0.23 sec
  HOMO = -0.165406239772075  LUMO = -0.116718369579015
  mo_energy =
[-1.01374203e+02 -1.44778068e+01 -1.03086921e+01 -1.03084410e+01
 -1.02727683e+01 -1.02724754e+01 -1.02622559e+01 -1.02450049e+01
 -9.29629777e+00 -7.05454841e+00 -7.05398017e+00 -7.05341142e+00
 -1.05624720e+00 -8.89526287e-01 -8.49412964e-01 -7.52519226e-01
 -7.19110647e-01 -6.95046509e-01 -6.28600966e-01 -5.97027292e-01
 -5.67771579e-01 -5.44165877e-01 -5.11599282e-01 -5.07040923e-01
 -5.01004505e-01 -4.39695916e-01 -4.32232604e-01 -4.26168031e-01
 -4.25593193e-01 -3.58379844e-01 -3.42392997e-01 -1.69246289e-01
 -1.65805867e-01 -1.65406240e-01 -1.16718370e-01 -8.47488029e-02
  2.48993107e-02  6.27627618e-02  7.79363405e-02  8.26414849e-02
  1.03413867e-01  1.12540960e-01  1.24611204e-01  1.38291804e-01
  1.59210637e-01  1.73212324e-01  2.15251735e-01  2.23306117e-01
  2.47323875e-01  2.64626194e-01  3.67536089e-01  3.90810544e-01
  4.33463817e-01  4.56188726e-01  4.70557889e-01  4.89777511e-01
  5.00901417e-01  5.17508778e-01  5.21898884e-01  5.34489170e-01
  5.37755868e-01  5.53142909e-01  5.59755832e-01  5.63054666e-01
  5.82511609e-01  5.92335411e-01  5.96840525e-01  6.59278115e-01
  6.62467778e-01  7.13825604e-01  7.38471689e-01  7.62616342e-01
  7.71149333e-01  7.79521021e-01  7.90523967e-01  7.92317540e-01
  8.46318937e-01  8.58268687e-01  8.83507569e-01  8.95921653e-01
  9.13584629e-01  9.56341861e-01  9.75514111e-01  1.01607345e+00
  1.03418697e+00  1.03453037e+00  1.03539968e+00  1.04962568e+00
  1.06678412e+00  1.10459718e+00  1.13141186e+00  1.14229235e+00
  1.16279766e+00  1.27636856e+00  1.28244009e+00  1.32126600e+00
  1.36023262e+00  1.38958008e+00  1.39723915e+00  1.40473849e+00
  1.42349054e+00  1.46110459e+00  1.64457113e+00  1.71913345e+00
  1.72938727e+00  1.78860763e+00  1.83799793e+00  1.85796331e+00
  1.86560616e+00  1.90903052e+00  1.97448095e+00  2.05072378e+00
  2.05894998e+00  2.08409907e+00  2.09671454e+00  2.10158374e+00
  2.17839213e+00  2.22775061e+00  2.24436370e+00  2.26290167e+00
  2.31497535e+00  2.35064910e+00  2.48898698e+00  2.50560883e+00
  2.59741084e+00  2.60112676e+00  2.67013522e+00  2.67394722e+00
  2.68257721e+00  2.77145312e+00  2.94845392e+00  3.33176858e+00]
nelec by numeric integration = 68.00014099050554
    CPU time for vxc      5.99 sec, wall time      0.21 sec
E1 = -1776.0968036519  Ecoul = 719.0547699975684  Exc = -70.49271664843728
cycle= 5 E= -748.086774497347  delta_E= -0.00461  |g|= 0.0783  |ddm|= 0.375
    CPU time for cycle= 5      6.51 sec, wall time      0.23 sec
  HOMO = -0.152405195655014  LUMO = -0.117760439949289
  mo_energy =
[-1.01342924e+02 -1.44783999e+01 -1.03047455e+01 -1.03034669e+01
 -1.02804732e+01 -1.02677788e+01 -1.02677249e+01 -1.02351779e+01
 -9.26994581e+00 -7.02753529e+00 -7.02736870e+00 -7.02658683e+00
 -1.05487615e+00 -8.92218105e-01 -8.48187784e-01 -7.51765808e-01
 -7.19607201e-01 -6.95020009e-01 -6.15299575e-01 -5.96539692e-01
 -5.68870929e-01 -5.45075664e-01 -5.11093798e-01 -5.06227932e-01
 -5.02979077e-01 -4.41822629e-01 -4.32887718e-01 -4.25290675e-01
 -4.23185223e-01 -3.60582610e-01 -3.41727071e-01 -1.56191668e-01
 -1.52556890e-01 -1.52405196e-01 -1.17760440e-01 -8.42551905e-02
  2.42386522e-02  6.12760609e-02  7.72173957e-02  8.16237611e-02
  1.03171163e-01  1.13184474e-01  1.23627011e-01  1.37777786e-01
  1.60506636e-01  1.75519407e-01  2.14464547e-01  2.21668357e-01
  2.46469474e-01  2.64434529e-01  3.66778742e-01  3.91095029e-01
  4.33407078e-01  4.54485226e-01  4.76382094e-01  4.88557770e-01
  5.00991690e-01  5.17483792e-01  5.21768127e-01  5.32691545e-01
  5.35693730e-01  5.56160319e-01  5.61571680e-01  5.65432603e-01
  5.90542315e-01  5.95245256e-01  5.98522229e-01  6.62598601e-01
  6.66566969e-01  7.18027983e-01  7.41133753e-01  7.62794524e-01
  7.67834776e-01  7.81045805e-01  7.91065388e-01  7.93125896e-01
  8.45258545e-01  8.56050860e-01  8.86692148e-01  8.96605568e-01
  9.13257915e-01  9.56772875e-01  9.77097153e-01  1.01802119e+00
  1.03300920e+00  1.05157531e+00  1.05200456e+00  1.06528937e+00
  1.07912738e+00  1.10251120e+00  1.13611318e+00  1.14288403e+00
  1.16209714e+00  1.28310234e+00  1.28469715e+00  1.31945063e+00
  1.36086668e+00  1.38835781e+00  1.39487919e+00  1.40090064e+00
  1.42447219e+00  1.46145334e+00  1.64396077e+00  1.72130759e+00
  1.72915238e+00  1.78636844e+00  1.84053919e+00  1.85533009e+00
  1.86663367e+00  1.91037452e+00  1.97325573e+00  2.05108366e+00
  2.05885259e+00  2.08397301e+00  2.09536330e+00  2.10085180e+00
  2.17773953e+00  2.22811635e+00  2.24318600e+00  2.26589093e+00
  2.31611018e+00  2.35254107e+00  2.48894712e+00  2.50345189e+00
  2.59660743e+00  2.60004036e+00  2.67024229e+00  2.67378061e+00
  2.68059458e+00  2.77305221e+00  2.94826523e+00  3.33126166e+00]
nelec by numeric integration = 68.00014179231047
    CPU time for vxc      6.57 sec, wall time      0.23 sec
E1 = -1775.7000369345383  Ecoul = 718.6223666219134  Exc = -70.45952492342477
cycle= 6 E= -748.089219430628  delta_E= -0.00244  |g|= 0.0173  |ddm|= 0.191
    CPU time for cycle= 6      7.43 sec, wall time      0.27 sec
  HOMO = -0.149903738990866  LUMO = -0.11581294986947
  mo_energy =
[-1.01333015e+02 -1.44733319e+01 -1.03037236e+01 -1.03027768e+01
 -1.02735263e+01 -1.02679212e+01 -1.02676276e+01 -1.02318876e+01
 -9.26226042e+00 -7.01967957e+00 -7.01948976e+00 -7.01862345e+00
 -1.05299358e+00 -8.90342225e-01 -8.47434237e-01 -7.49995359e-01
 -7.18261809e-01 -6.93864369e-01 -6.12626112e-01 -5.94706614e-01
 -5.67368513e-01 -5.44506991e-01 -5.10645952e-01 -5.04762796e-01
 -5.00772751e-01 -4.40640326e-01 -4.31461701e-01 -4.24117416e-01
 -4.22087454e-01 -3.58718654e-01 -3.41215770e-01 -1.53526006e-01
 -1.50119497e-01 -1.49903739e-01 -1.15812950e-01 -8.34626387e-02
  2.50580653e-02  6.25492834e-02  7.75885711e-02  8.24752239e-02
  1.04162685e-01  1.14317600e-01  1.23986310e-01  1.38455846e-01
  1.61299724e-01  1.76215296e-01  2.15694736e-01  2.22898921e-01
  2.47431510e-01  2.65269312e-01  3.67603203e-01  3.91850430e-01
  4.34204475e-01  4.55695532e-01  4.77858460e-01  4.89789808e-01
  5.01960259e-01  5.17957753e-01  5.22784832e-01  5.33923729e-01
  5.36889363e-01  5.57491552e-01  5.62650157e-01  5.66775196e-01
  5.92263549e-01  5.96312657e-01  5.99984598e-01  6.63454664e-01
  6.68342145e-01  7.19297937e-01  7.42173582e-01  7.63212060e-01
  7.69442067e-01  7.82363874e-01  7.91637378e-01  7.94674026e-01
  8.46446980e-01  8.57086159e-01  8.87898308e-01  8.97732314e-01
  9.14218453e-01  9.57748853e-01  9.78097439e-01  1.01884857e+00
  1.03412594e+00  1.05503499e+00  1.05544697e+00  1.06853849e+00
  1.08200821e+00  1.10346832e+00  1.13766754e+00  1.14395732e+00
  1.16347496e+00  1.28452617e+00  1.28676727e+00  1.32082324e+00
  1.36197224e+00  1.38908690e+00  1.39662069e+00  1.40276390e+00
  1.42508401e+00  1.46269700e+00  1.64515313e+00  1.72301891e+00
  1.73056507e+00  1.78781935e+00  1.84192198e+00  1.85682443e+00
  1.86779169e+00  1.91144482e+00  1.97461978e+00  2.05197567e+00
  2.06035299e+00  2.08510496e+00  2.09709800e+00  2.10224091e+00
  2.17941154e+00  2.22891040e+00  2.24489019e+00  2.26723773e+00
  2.31761809e+00  2.35380026e+00  2.48986323e+00  2.50522118e+00
  2.59797109e+00  2.60146103e+00  2.67140520e+00  2.67505249e+00
  2.68266689e+00  2.77458399e+00  2.94975108e+00  3.33274896e+00]
nelec by numeric integration = 68.0001421650204
    CPU time for vxc      6.56 sec, wall time      0.24 sec
E1 = -1775.545676478761  Ecoul = 718.4544680827258  Exc = -70.44598623943229
cycle= 7 E= -748.089218830046  delta_E= 6.01e-07  |g|= 0.012  |ddm|= 0.042
    CPU time for cycle= 7      7.36 sec, wall time      0.27 sec
  HOMO = -0.152144810509097  LUMO = -0.114997399493461
  mo_energy =
[-1.01336174e+02 -1.44724283e+01 -1.03019722e+01 -1.03008911e+01
 -1.02728857e+01 -1.02666794e+01 -1.02664650e+01 -1.02321887e+01
 -9.26530161e+00 -7.02281503e+00 -7.02251359e+00 -7.02161181e+00
 -1.05201560e+00 -8.89397502e-01 -8.46160220e-01 -7.49516032e-01
 -7.17190177e-01 -6.92913507e-01 -6.14167350e-01 -5.94556051e-01
 -5.66220871e-01 -5.43420157e-01 -5.09450608e-01 -5.03924632e-01
 -5.00194069e-01 -4.39592159e-01 -4.30587106e-01 -4.23755162e-01
 -4.22016983e-01 -3.57970677e-01 -3.40001252e-01 -1.55554584e-01
 -1.52203740e-01 -1.52144811e-01 -1.14997399e-01 -8.22615232e-02
  2.57478085e-02  6.35869916e-02  7.83626030e-02  8.30863967e-02
  1.04929651e-01  1.14606987e-01  1.24821970e-01  1.38804233e-01
  1.61520766e-01  1.76109094e-01  2.16589408e-01  2.23715763e-01
  2.48329598e-01  2.66072259e-01  3.68366109e-01  3.92773270e-01
  4.35154608e-01  4.56707025e-01  4.77309835e-01  4.90399077e-01
  5.03054960e-01  5.19014140e-01  5.23534544e-01  5.34693444e-01
  5.37843979e-01  5.57427360e-01  5.63083241e-01  5.66871541e-01
  5.91116548e-01  5.97062860e-01  5.99145955e-01  6.64030339e-01
  6.67410448e-01  7.19189293e-01  7.42476536e-01  7.64177012e-01
  7.70264785e-01  7.82388166e-01  7.92392964e-01  7.95242422e-01
  8.47149941e-01  8.57974710e-01  8.87793309e-01  8.98016857e-01
  9.14916658e-01  9.58544033e-01  9.78226965e-01  1.01945686e+00
  1.03495938e+00  1.05238377e+00  1.05283371e+00  1.06609052e+00
  1.08026176e+00  1.10428792e+00  1.13760645e+00  1.14457813e+00
  1.16462366e+00  1.28539150e+00  1.28565355e+00  1.32162449e+00
  1.36295067e+00  1.39005085e+00  1.39769180e+00  1.40385223e+00
  1.42636935e+00  1.46354626e+00  1.64620183e+00  1.72349891e+00
  1.73152546e+00  1.78875353e+00  1.84242141e+00  1.85781297e+00
  1.86863389e+00  1.91220809e+00  1.97576266e+00  2.05312730e+00
  2.06146596e+00  2.08619456e+00  2.09791507e+00  2.10335331e+00
  2.18007216e+00  2.23015605e+00  2.24573531e+00  2.26736876e+00
  2.31839901e+00  2.35453448e+00  2.49098765e+00  2.50617454e+00
  2.59914820e+00  2.60254526e+00  2.67260362e+00  2.67621820e+00
  2.68361688e+00  2.77527299e+00  2.95084192e+00  3.33388164e+00]
nelec by numeric integration = 68.00014207893689
    CPU time for vxc      6.73 sec, wall time      0.27 sec
E1 = -1775.5593973845384  Ecoul = 718.4703549488337  Exc = -70.44822580629616
cycle= 8 E= -748.089292436579  delta_E= -7.36e-05  |g|= 0.002  |ddm|= 0.0301
    CPU time for cycle= 8      7.25 sec, wall time      0.29 sec
  HOMO = -0.152774279024301  LUMO = -0.114929577478842
  mo_energy =
[-1.01336854e+02 -1.44726046e+01 -1.03023238e+01 -1.03013935e+01
 -1.02730248e+01 -1.02664628e+01 -1.02661946e+01 -1.02325355e+01
 -9.26602777e+00 -7.02352074e+00 -7.02323653e+00 -7.02234547e+00
 -1.05207616e+00 -8.89241595e-01 -8.46101242e-01 -7.49572396e-01
 -7.17069167e-01 -6.92882150e-01 -6.14682360e-01 -5.94609000e-01
 -5.66134276e-01 -5.43178675e-01 -5.09322235e-01 -5.03937891e-01
 -5.00185828e-01 -4.39393762e-01 -4.30542404e-01 -4.23798598e-01
 -4.22166952e-01 -3.57890209e-01 -3.39885689e-01 -1.56175109e-01
 -1.52807856e-01 -1.52774279e-01 -1.14929577e-01 -8.21454442e-02
  2.58851456e-02  6.37361998e-02  7.85215059e-02  8.31917296e-02
  1.05019539e-01  1.14595824e-01  1.24989792e-01  1.38858403e-01
  1.61453764e-01  1.75950401e-01  2.16665871e-01  2.23835584e-01
  2.48472738e-01  2.66150422e-01  3.68468351e-01  3.92880649e-01
  4.35220869e-01  4.56846608e-01  4.77023258e-01  4.90488788e-01
  5.03111186e-01  5.19149883e-01  5.23617928e-01  5.34871281e-01
  5.38000848e-01  5.57288167e-01  5.63062001e-01  5.66807967e-01
  5.90701120e-01  5.97132290e-01  5.98918945e-01  6.64100232e-01
  6.67038657e-01  7.18992832e-01  7.42403479e-01  7.64319587e-01
  7.70457444e-01  7.82304372e-01  7.92481050e-01  7.95205764e-01
  8.47241154e-01  8.58161127e-01  8.87619372e-01  8.97997575e-01
  9.14953166e-01  9.58600680e-01  9.78121003e-01  1.01952011e+00
  1.03509570e+00  1.05167195e+00  1.05212633e+00  1.06543759e+00
  1.07970375e+00  1.10449471e+00  1.13744860e+00  1.14465086e+00
  1.16470774e+00  1.28524410e+00  1.28539976e+00  1.32174186e+00
  1.36303103e+00  1.39023261e+00  1.39783283e+00  1.40400399e+00
  1.42646407e+00  1.46360523e+00  1.64630772e+00  1.72340138e+00
  1.73158767e+00  1.78890733e+00  1.84232036e+00  1.85800324e+00
  1.86865439e+00  1.91225011e+00  1.97584927e+00  2.05323437e+00
  2.06148553e+00  2.08628772e+00  2.09798481e+00  2.10343049e+00
  2.18010659e+00  2.23027351e+00  2.24579127e+00  2.26722507e+00
  2.31836157e+00  2.35448121e+00  2.49110772e+00  2.50628078e+00
  2.59923929e+00  2.60264821e+00  2.67268045e+00  2.67628418e+00
  2.68368563e+00  2.77524855e+00  2.95088611e+00  3.33395821e+00]
nelec by numeric integration = 68.00014204007519
    CPU time for vxc      5.86 sec, wall time      0.21 sec
E1 = -1775.5744978979835  Ecoul = 718.4867522306716  Exc = -70.4495244268347
cycle= 9 E= -748.089294288725  delta_E= -1.85e-06  |g|= 0.00111  |ddm|= 0.00905
    CPU time for cycle= 9      6.39 sec, wall time      0.23 sec
  HOMO = -0.15269609329726  LUMO = -0.114955980117725
  mo_energy =
[-1.01336793e+02 -1.44727912e+01 -1.03022557e+01 -1.03012117e+01
 -1.02730158e+01 -1.02666310e+01 -1.02664218e+01 -1.02325970e+01
 -9.26595313e+00 -7.02344159e+00 -7.02316580e+00 -7.02227561e+00
 -1.05211951e+00 -8.89314948e-01 -8.46132066e-01 -7.49608083e-01
 -7.17126231e-01 -6.92910733e-01 -6.14626354e-01 -5.94613153e-01
 -5.66186888e-01 -5.43241197e-01 -5.09352071e-01 -5.03975065e-01
 -5.00231671e-01 -4.39455245e-01 -4.30588107e-01 -4.23821163e-01
 -4.22174164e-01 -3.57946119e-01 -3.39919561e-01 -1.56104927e-01
 -1.52736852e-01 -1.52696093e-01 -1.14955980e-01 -8.21939002e-02
  2.58507972e-02  6.36838286e-02  7.84909734e-02  8.31660478e-02
  1.04991586e-01  1.14565497e-01  1.24964972e-01  1.38837359e-01
  1.61445082e-01  1.75959179e-01  2.16635300e-01  2.23791016e-01
  2.48421151e-01  2.66122322e-01  3.68438719e-01  3.92836319e-01
  4.35204090e-01  4.56802630e-01  4.77045406e-01  4.90449857e-01
  5.03099111e-01  5.19120596e-01  5.23586616e-01  5.34811773e-01
  5.37960304e-01  5.57287780e-01  5.63042652e-01  5.66806011e-01
  5.90740718e-01  5.97105658e-01  5.98939801e-01  6.64065380e-01
  6.67069296e-01  7.19005105e-01  7.42386852e-01  7.64287726e-01
  7.70401603e-01  7.82301054e-01  7.92460539e-01  7.95164475e-01
  8.47201446e-01  8.58109647e-01  8.87617667e-01  8.97979807e-01
  9.14939344e-01  9.58569862e-01  9.78123523e-01  1.01949178e+00
  1.03506296e+00  1.05176235e+00  1.05221484e+00  1.06552232e+00
  1.07975944e+00  1.10444233e+00  1.13744498e+00  1.14461018e+00
  1.16466162e+00  1.28528382e+00  1.28536241e+00  1.32169416e+00
  1.36297444e+00  1.39019655e+00  1.39776967e+00  1.40395464e+00
  1.42643455e+00  1.46355939e+00  1.64625892e+00  1.72336110e+00
  1.73154262e+00  1.78885046e+00  1.84230260e+00  1.85793683e+00
  1.86862396e+00  1.91220658e+00  1.97581294e+00  2.05319090e+00
  2.06145775e+00  2.08624139e+00  2.09793348e+00  2.10338937e+00
  2.18005875e+00  2.23022935e+00  2.24574280e+00  2.26721005e+00
  2.31832825e+00  2.35446693e+00  2.49106405e+00  2.50622621e+00
  2.59919188e+00  2.60259550e+00  2.67263759e+00  2.67624457e+00
  2.68362549e+00  2.77520231e+00  2.95084133e+00  3.33390819e+00]
nelec by numeric integration = 68.0001420340752
    CPU time for vxc      5.85 sec, wall time      0.21 sec
E1 = -1775.5751624808272  Ecoul = 718.4874928283838  Exc = -70.4496007900533
cycle= 10 E= -748.089294637075  delta_E= -3.48e-07  |g|= 0.000436  |ddm|= 0.00115
    CPU time for cycle= 10      6.37 sec, wall time      0.23 sec
  HOMO = -0.152621489122916  LUMO = -0.115000060847682
  mo_energy =
[-1.01336812e+02 -1.44728019e+01 -1.03023162e+01 -1.03013180e+01
 -1.02730930e+01 -1.02666895e+01 -1.02664442e+01 -1.02326143e+01
 -9.26593276e+00 -7.02342100e+00 -7.02315218e+00 -7.02226017e+00
 -1.05216842e+00 -8.89375662e-01 -8.46192867e-01 -7.49636222e-01
 -7.17184809e-01 -6.92957568e-01 -6.14579329e-01 -5.94642970e-01
 -5.66247593e-01 -5.43301649e-01 -5.09412672e-01 -5.04015508e-01
 -5.00270478e-01 -4.39516375e-01 -4.30636396e-01 -4.23839299e-01
 -4.22170563e-01 -3.57991745e-01 -3.39980196e-01 -1.56035138e-01
 -1.52670366e-01 -1.52621489e-01 -1.15000061e-01 -8.22549073e-02
  2.58095817e-02  6.36266222e-02  7.84494218e-02  8.31297972e-02
  1.04949971e-01  1.14546778e-01  1.24918490e-01  1.38817393e-01
  1.61437777e-01  1.75971158e-01  2.16584902e-01  2.23744940e-01
  2.48372762e-01  2.66078915e-01  3.68397783e-01  3.92787144e-01
  4.35155130e-01  4.56745688e-01  4.77062872e-01  4.90412104e-01
  5.03040738e-01  5.19064821e-01  5.23540814e-01  5.34763315e-01
  5.37898508e-01  5.57278888e-01  5.63017832e-01  5.66790556e-01
  5.90779516e-01  5.97068460e-01  5.98954685e-01  6.64033131e-01
  6.67102714e-01  7.19005807e-01  7.42370203e-01  7.64238537e-01
  7.70342792e-01  7.82288756e-01  7.92416875e-01  7.95140102e-01
  8.47161517e-01  8.58054803e-01  8.87624805e-01  8.97960311e-01
  9.14903095e-01  9.58530923e-01  9.78122532e-01  1.01945369e+00
  1.03501203e+00  1.05184474e+00  1.05229595e+00  1.06559735e+00
  1.07980956e+00  1.10438898e+00  1.13743774e+00  1.14456962e+00
  1.16460026e+00  1.28531607e+00  1.28532393e+00  1.32164599e+00
  1.36292207e+00  1.39014137e+00  1.39770656e+00  1.40388571e+00
  1.42636908e+00  1.46351565e+00  1.64620179e+00  1.72333803e+00
  1.73148968e+00  1.78879231e+00  1.84227784e+00  1.85787515e+00
  1.86858047e+00  1.91216514e+00  1.97574937e+00  2.05312893e+00
  2.06139998e+00  2.08618330e+00  2.09788237e+00  2.10332964e+00
  2.18002135e+00  2.23016503e+00  2.24569361e+00  2.26720635e+00
  2.31828778e+00  2.35442918e+00  2.49100373e+00  2.50616763e+00
  2.59912966e+00  2.60253527e+00  2.67257683e+00  2.67618390e+00
  2.68356939e+00  2.77516569e+00  2.95078411e+00  3.33384818e+00]
nelec by numeric integration = 68.00014203821857
    CPU time for vxc      5.90 sec, wall time      0.21 sec
E1 = -1775.5758600120294  Ecoul = 718.4881936266605  Exc = -70.44960416369668
cycle= 11 E= -748.089294743644  delta_E= -1.07e-07  |g|= 0.000103  |ddm|= 0.00125
    CPU time for cycle= 11      6.41 sec, wall time      0.23 sec
  HOMO = -0.152609158673408  LUMO = -0.115007966341038
  mo_energy =
[-1.01336805e+02 -1.44728159e+01 -1.03023502e+01 -1.03013098e+01
 -1.02731081e+01 -1.02666869e+01 -1.02664768e+01 -1.02326098e+01
 -9.26592270e+00 -7.02341047e+00 -7.02314316e+00 -7.02225057e+00
 -1.05217801e+00 -8.89386592e-01 -8.46204442e-01 -7.49641382e-01
 -7.17195406e-01 -6.92967176e-01 -6.14571401e-01 -5.94647614e-01
 -5.66259272e-01 -5.43311922e-01 -5.09423253e-01 -5.04023326e-01
 -5.00277349e-01 -4.39527258e-01 -4.30644291e-01 -4.23844297e-01
 -4.22173738e-01 -3.58000304e-01 -3.39991018e-01 -1.56024402e-01
 -1.52659574e-01 -1.52609159e-01 -1.15007966e-01 -8.22659833e-02
  2.58031820e-02  6.36161895e-02  7.84424782e-02  8.31242955e-02
  1.04942810e-01  1.14542675e-01  1.24913002e-01  1.38813328e-01
  1.61434501e-01  1.75971222e-01  2.16579364e-01  2.23734951e-01
  2.48361000e-01  2.66072297e-01  3.68391000e-01  3.92777607e-01
  4.35145699e-01  4.56736293e-01  4.77065394e-01  4.90405050e-01
  5.03030768e-01  5.19056141e-01  5.23533349e-01  5.34751550e-01
  5.37892017e-01  5.57278338e-01  5.63011898e-01  5.66788742e-01
  5.90784623e-01  5.97063204e-01  5.98956215e-01  6.64025201e-01
  6.67105975e-01  7.19005244e-01  7.42365808e-01  7.64228187e-01
  7.70336063e-01  7.82285973e-01  7.92410272e-01  7.95134771e-01
  8.47153450e-01  8.58046372e-01  8.87623592e-01  8.97957125e-01
  9.14895153e-01  9.58523264e-01  9.78118864e-01  1.01944700e+00
  1.03500417e+00  1.05185942e+00  1.05231045e+00  1.06561022e+00
  1.07981822e+00  1.10438020e+00  1.13743631e+00  1.14456354e+00
  1.16458872e+00  1.28530737e+00  1.28532839e+00  1.32163821e+00
  1.36291236e+00  1.39013262e+00  1.39769456e+00  1.40387503e+00
  1.42635767e+00  1.46350774e+00  1.64619151e+00  1.72333299e+00
  1.73147984e+00  1.78878271e+00  1.84227230e+00  1.85786478e+00
  1.86857277e+00  1.91215712e+00  1.97573794e+00  2.05311840e+00
  2.06138928e+00  2.08617350e+00  2.09787504e+00  2.10331845e+00
  2.18001148e+00  2.23015332e+00  2.24568502e+00  2.26720343e+00
  2.31827983e+00  2.35442248e+00  2.49099203e+00  2.50615851e+00
  2.59911823e+00  2.60252421e+00  2.67256509e+00  2.67617289e+00
  2.68355899e+00  2.77515849e+00  2.95077367e+00  3.33383713e+00]
nelec by numeric integration = 68.00014203837897
    CPU time for vxc      5.93 sec, wall time      0.21 sec
E1 = -1775.5759585104206  Ecoul = 718.488295078527  Exc = -70.44960712037121
cycle= 12 E= -748.089294746843  delta_E= -3.2e-09  |g|= 5.59e-05  |ddm|= 0.000209
    CPU time for cycle= 12      6.48 sec, wall time      0.23 sec
  HOMO = -0.152606217229538  LUMO = -0.115006526875665
  mo_energy =
[-1.01336791e+02 -1.44728214e+01 -1.03023354e+01 -1.03013156e+01
 -1.02731047e+01 -1.02666950e+01 -1.02664670e+01 -1.02326105e+01
 -9.26591209e+00 -7.02339943e+00 -7.02313239e+00 -7.02223961e+00
 -1.05217817e+00 -8.89385015e-01 -8.46202867e-01 -7.49641601e-01
 -7.17194469e-01 -6.92966245e-01 -6.14568201e-01 -5.94645642e-01
 -5.66257942e-01 -5.43310788e-01 -5.09421651e-01 -5.04023531e-01
 -5.00277051e-01 -4.39525910e-01 -4.30643802e-01 -4.23844749e-01
 -4.22174708e-01 -3.57999883e-01 -3.39989224e-01 -1.56021684e-01
 -1.52656828e-01 -1.52606217e-01 -1.15006527e-01 -8.22644969e-02
  2.58041007e-02  6.36176756e-02  7.84432979e-02  8.31247390e-02
  1.04943248e-01  1.14543138e-01  1.24912998e-01  1.38813428e-01
  1.61434264e-01  1.75969829e-01  2.16578361e-01  2.23736629e-01
  2.48363625e-01  2.66072603e-01  3.68391499e-01  3.92778758e-01
  4.35147396e-01  4.56737165e-01  4.77066376e-01  4.90405884e-01
  5.03032454e-01  5.19057240e-01  5.23534701e-01  5.34754965e-01
  5.37892271e-01  5.57278796e-01  5.63013195e-01  5.66789683e-01
  5.90786577e-01  5.97063889e-01  5.98958135e-01  6.64026827e-01
  6.67107041e-01  7.19005701e-01  7.42366526e-01  7.64230362e-01
  7.70336565e-01  7.82287422e-01  7.92411112e-01  7.95133436e-01
  8.47154518e-01  8.58047531e-01  8.87622578e-01  8.97956925e-01
  9.14896318e-01  9.58523660e-01  9.78118392e-01  1.01944852e+00
  1.03500516e+00  1.05186386e+00  1.05231484e+00  1.06561416e+00
  1.07982119e+00  1.10438188e+00  1.13743726e+00  1.14456406e+00
  1.16459009e+00  1.28530798e+00  1.28532938e+00  1.32163875e+00
  1.36291314e+00  1.39013366e+00  1.39769610e+00  1.40387667e+00
  1.42635943e+00  1.46350788e+00  1.64619232e+00  1.72333210e+00
  1.73148107e+00  1.78878412e+00  1.84227234e+00  1.85786606e+00
  1.86857322e+00  1.91215790e+00  1.97573991e+00  2.05311965e+00
  2.06139071e+00  2.08617427e+00  2.09787491e+00  2.10331991e+00
  2.18001299e+00  2.23015500e+00  2.24568530e+00  2.26720261e+00
  2.31827975e+00  2.35442311e+00  2.49099421e+00  2.50615908e+00
  2.59911937e+00  2.60252560e+00  2.67256674e+00  2.67617429e+00
  2.68356001e+00  2.77515860e+00  2.95077470e+00  3.33383843e+00]
nelec by numeric integration = 68.00014203842548
    CPU time for vxc      5.93 sec, wall time      0.21 sec
E1 = -1775.575831462195  Ecoul = 718.4881579493939  Exc = -70.44959704035425
cycle= 13 E= -748.089294747734  delta_E= -8.91e-10  |g|= 5.43e-06  |ddm|= 6.94e-05
    CPU time for cycle= 13      6.46 sec, wall time      0.23 sec
  HOMO = -0.152606673588361  LUMO = -0.115004960121985
  mo_energy =
[-1.01336788e+02 -1.44728173e+01 -1.03023354e+01 -1.03013112e+01
 -1.02731031e+01 -1.02666922e+01 -1.02664675e+01 -1.02326112e+01
 -9.26590988e+00 -7.02339709e+00 -7.02313007e+00 -7.02223723e+00
 -1.05217591e+00 -8.89383563e-01 -8.46201095e-01 -7.49640835e-01
 -7.17192702e-01 -6.92964959e-01 -6.14568032e-01 -5.94644604e-01
 -5.66256233e-01 -5.43309427e-01 -5.09420016e-01 -5.04021870e-01
 -5.00275921e-01 -4.39524418e-01 -4.30642515e-01 -4.23844231e-01
 -4.22174672e-01 -3.57998462e-01 -3.39987654e-01 -1.56021959e-01
 -1.52657154e-01 -1.52606674e-01 -1.15004960e-01 -8.22629948e-02
  2.58050351e-02  6.36191264e-02  7.84442594e-02  8.31256402e-02
  1.04944458e-01  1.14543504e-01  1.24914202e-01  1.38813933e-01
  1.61434645e-01  1.75969872e-01  2.16580074e-01  2.23737704e-01
  2.48364610e-01  2.66073840e-01  3.68392530e-01  3.92780159e-01
  4.35148635e-01  4.56738687e-01  4.77066495e-01  4.90406735e-01
  5.03034255e-01  5.19058675e-01  5.23535908e-01  5.34755687e-01
  5.37893803e-01  5.57279560e-01  5.63014004e-01  5.66790396e-01
  5.90786481e-01  5.97064961e-01  5.98958357e-01  6.64027486e-01
  6.67107144e-01  7.19006140e-01  7.42367198e-01  7.64231493e-01
  7.70337810e-01  7.82287990e-01  7.92412364e-01  7.95134858e-01
  8.47155520e-01  8.58048725e-01  8.87622842e-01  8.97957608e-01
  9.14897273e-01  9.58524953e-01  9.78118785e-01  1.01944958e+00
  1.03500655e+00  1.05186363e+00  1.05231463e+00  1.06561398e+00
  1.07982125e+00  1.10438294e+00  1.13743792e+00  1.14456521e+00
  1.16459183e+00  1.28530942e+00  1.28532941e+00  1.32164001e+00
  1.36291454e+00  1.39013506e+00  1.39769776e+00  1.40387830e+00
  1.42636124e+00  1.46350944e+00  1.64619393e+00  1.72333314e+00
  1.73148249e+00  1.78878545e+00  1.84227300e+00  1.85786756e+00
  1.86857447e+00  1.91215891e+00  1.97574157e+00  2.05312135e+00
  2.06139257e+00  2.08617586e+00  2.09787635e+00  2.10332160e+00
  2.18001375e+00  2.23015665e+00  2.24568664e+00  2.26720268e+00
  2.31828113e+00  2.35442430e+00  2.49099572e+00  2.50616069e+00
  2.59912109e+00  2.60252723e+00  2.67256840e+00  2.67617601e+00
  2.68356164e+00  2.77515984e+00  2.95077642e+00  3.33384011e+00]
nelec by numeric integration = 68.0001420384636
    CPU time for vxc      5.86 sec, wall time      0.21 sec
E1 = -1775.5757559004242  Ecoul = 718.4880779468624  Exc = -70.44959259957348
Extra cycle  E= -748.089294747714  delta_E= 2e-11  |g|= 1e-05  |ddm|= 2.68e-05
    CPU time for scf_cycle    110.33 sec, wall time      4.17 sec
    CPU time for SCF    110.34 sec, wall time      4.17 sec
converged SCF energy = -748.089294747714
Converting <class 'pyscf.dft.rks.RKS'> to RHF


******** <class 'pyscf.tdscf.rks.TDA'> for <class 'pyscf.dft.rks.RKS'> ********
nstates = 10 singlet
wfnsym = None
conv_tol = 1e-09
eigh lindep = 1e-12
eigh level_shift = 0
eigh max_space = 50
eigh max_cycle = 100
chkfile = /scratch/global/yangjunjie/tmpd8ur1ewo
max_memory 127949 MB (current use 606 MB)


davidson 0 10  |r|= 0.095  e= [0.01677842 0.01891253 0.05202845 0.05234813 0.05394525 0.05609113
 0.15751482 0.15824785 0.1745366  0.19805371]  max|de|= 0.198  lindep=    1
Old state -> New state
    5     ->     2 
    2     ->     4 
    4     ->     5 
davidson 1 20  |r|= 0.0168  e= [0.01671701 0.01862211 0.04546648 0.05156946 0.05201701 0.05387846
 0.15663842 0.15732158 0.16907724 0.19798021]  max|de|= -0.0106  lindep= 0.818
davidson 2 30  |r|= 0.0123  e= [0.01671686 0.01861405 0.04515677 0.05155374 0.05201672 0.05387748
 0.15637411 0.15704172 0.16851953 0.19796966]  max|de|= -0.000558  lindep= 0.887
root 0 converged  |r|= 2.45e-06  e= 0.01671686229258837  max|de|= -6.37e-10
davidson 3 40  |r|= 0.00485  e= [0.01671686 0.018614   0.04513621 0.05155206 0.05201672 0.05387746
 0.15635494 0.15702463 0.16825193 0.19796908]  max|de|= -0.000268  lindep= 0.848
root 1 converged  |r|= 1.62e-06  e= 0.018613998867275244  max|de|= -2.28e-10
root 4 converged  |r|= 9.97e-07  e= 0.0520167162899267  max|de|= -3.38e-11
root 5 converged  |r|= 1.1e-06  e= 0.053877459492141094  max|de|= -2.51e-10
davidson 4 49  |r|= 0.00253  e= [0.01671686 0.018614   0.04513574 0.05155193 0.05201672 0.05387746
 0.15635345 0.15702253 0.16820962 0.197969  ]  max|de|= -4.23e-05  lindep= 0.82
davidson 5 55  |r|= 0.00102  e= [0.01671686 0.018614   0.04513573 0.05155193 0.05201672 0.05387746
 0.15635323 0.15702206 0.16820056 0.19796894]  max|de|= -9.06e-06  lindep= 0.809
root 2 converged  |r|= 3.43e-06  e= 0.045135724848088005  max|de|= -3.34e-10
root 3 converged  |r|= 8.85e-07  e= 0.05155192595403714  max|de|= -4.39e-11
davidson 6 61  |r|= 0.000457  e= [0.01671686 0.018614   0.04513572 0.05155193 0.05201672 0.05387746
 0.15635321 0.15702197 0.16819881 0.19796882]  max|de|= -1.76e-06  lindep= 0.85
davidson 7 65  |r|= 0.000332  e= [0.01671686 0.018614   0.04513572 0.05155193 0.05201672 0.05387746
 0.15635321 0.15702196 0.16819838 0.19796872]  max|de|= -4.26e-07  lindep= 0.791
root 6 converged  |r|= 5.18e-06  e= 0.1563532111287202  max|de|= -2.04e-10
root 7 converged  |r|= 7.97e-06  e= 0.15702196041282876  max|de|= -4.94e-10
davidson 8 69  |r|= 0.00012  e= [0.01671686 0.018614   0.04513572 0.05155193 0.05201672 0.05387746
 0.15635321 0.15702196 0.16819825 0.19796871]  max|de|= -1.34e-07  lindep= 0.789
davidson 9 10  |r|= 0.00012  e= [0.01671686 0.018614   0.04513572 0.05155193 0.05201672 0.05387746
 0.15635321 0.15702196 0.16819825 0.19796871]  max|de|= -4.72e-16  lindep=    1
davidson 10 12  |r|= 4.72e-05  e= [0.01671686 0.018614   0.04513572 0.05155193 0.05201672 0.05387746
 0.15635321 0.15702196 0.16819823 0.19796871]  max|de|= -1.27e-08  lindep= 0.715
root 9 converged  |r|= 1.06e-05  e= 0.19796870865817262  max|de|= -5.18e-10
davidson 11 14  |r|= 1.89e-05  e= [0.01671686 0.018614   0.04513572 0.05155193 0.05201672 0.05387746
 0.15635321 0.15702196 0.16819823 0.19796871]  max|de|= -3.08e-09  lindep= 0.87
root 8 converged  |r|= 1.34e-05  e= 0.16819822950500113  max|de|= -9.13e-10
converged 12 15  |r|= 1.34e-05  e= [0.01671686 0.018614   0.04513572 0.05155193 0.05201672 0.05387746
 0.15635321 0.15702196 0.16819823 0.19796871]  max|de|= -9.13e-10
    CPU time for TDA    238.88 sec, wall time      8.71 sec
Excited State energies (eV)
[0.45488899 0.50651271 1.22820563 1.40279936 1.41544695 1.46608035
 4.25458758 4.27278518 4.57690695 5.38700295]
Converting <class 'pyscf.dft.rks.RKS'> to RHF


******** <class 'pyscf.tdscf.rks.TDDFT'> for <class 'pyscf.dft.rks.RKS'> ********
nstates = 10 singlet
wfnsym = None
conv_tol = 1e-09
eigh lindep = 1e-12
eigh level_shift = 0
eigh max_space = 50
eigh max_cycle = 100
chkfile = /scratch/global/yangjunjie/tmpd8ur1ewo
max_memory 127949 MB (current use 636 MB)


davidson 0 10  |r|= 0.14  e= [0.01677842 0.01891253 0.05202845 0.05234813 0.05394525 0.05609113
 0.15751482 0.15824785 0.1745366  0.19805371]  max|de|= 0.198  lindep=    1
Old state -> New state
    3     ->     2 
    1     ->     3 
    5     ->     4 
    2     ->     5 
    3     ->     6 
    4     ->     7 
    5     ->     8 
    6     ->     9 
davidson 1 20  |r|= 0.947  e= [0.01655886 0.0181154  0.0223488  0.02809247 0.03243516 0.05201235
 0.05217414 0.05385778 0.05769707 0.15366544]  max|de|= -0.03  lindep= 0.108
Old state -> New state
    4     ->     0 
    0     ->     1 
    1     ->     2 
    4     ->     3 
    6     ->     4 
    7     ->     6 
    0     ->     7 
    1     ->     8 
    6     ->     9 
davidson 2 30  |r|= 1.48  e= [0.00817814 0.01663148 0.01837012 0.03383672 0.05148236 0.05201486
 0.05386608 0.05945053 0.08695943 0.09551109]  max|de|= 0.0688  lindep= 0.137
Old state -> New state
    0     ->     2 
    2     ->     3 
    3     ->     4 
    3     ->     5 
    2     ->     6 
    5     ->     7 
    4     ->     8 
    5     ->     9 
davidson 3 40  |r|= 1.19  e= [0.00344262 0.01662776 0.0180249  0.01838439 0.03103222 0.03348406
 0.04529069 0.05015594 0.05141023 0.05201523]  max|de|= 0.0269  lindep= 0.107
Old state -> New state
    5     ->     0 
    3     ->     2 
    5     ->     3 
    8     ->     4 
    9     ->     5 
    4     ->     7 
    6     ->     8 
    2     ->     9 
davidson 4 50  |r|= 0.976  e= [0.0158314  0.01662746 0.01838528 0.03378222 0.05137489 0.05201515
 0.05386832 0.06346264 0.12027916 0.1455439 ]  max|de|= 0.128  lindep= 0.125
Old state -> New state
    8     ->     0 
    0     ->     1 
    1     ->     2 
    2     ->     3 
    3     ->     4 
    3     ->     5 
    4     ->     6 
    5     ->     7 
    6     ->     8 
    3     ->     9 
root 7 converged  |r|= 1.92e-06  e= 0.05201515075258046  max|de|= -7.83e-11
davidson 5 60  |r|=  1.2  e= [0.00249609 0.0149253  0.01662738 0.01838523 0.03273237 0.03387453
 0.05136951 0.05201515 0.05386755 0.09143329]  max|de|= -0.118  lindep= 0.087
Old state -> New state
    2     ->     0 
    3     ->     1 
    5     ->     2 
    5     ->     3 
    6     ->     4 
    7     ->     5 
    8     ->     6 
    0     ->     7 
    4     ->     8 
    0     ->     9 
root 0 converged  |r|= 5.37e-07  e= 0.016627378482746095  max|de|= -5.2e-10
davidson 6 69  |r|= 1.23  e= [0.01662738 0.01838522 0.01937721 0.0336814  0.05132693 0.05201515
 0.05386756 0.0549161  0.12974374 0.1562451 ]  max|de|= 0.154  lindep= 0.0648
Old state -> New state
    3     ->     2 
    2     ->     7 
    9     ->     8 
davidson 7 77  |r|= 1.63  e= [0.01662738 0.01838522 0.03371634 0.04718808 0.05132355 0.05201515
 0.05386754 0.10352408 0.12272807 0.14947139]  max|de|= 0.0841  lindep= 0.126
root 1 converged  |r|= 1.49e-07  e= 0.01838521923683534  max|de|= -3.47e-18
root 6 converged  |r|= 1.63e-06  e= 0.05386754109256884  max|de|= 3.47e-17
davidson 8 10  |r|= 1.63  e= [0.01662738 0.01838522 0.03371634 0.04718808 0.05132355 0.05201515
 0.05386754 0.10352408 0.12272807 0.14947139]  max|de|= 8.33e-16  lindep= 0.306
Old state -> New state
    4     ->     3 
    5     ->     4 
    6     ->     5 
    3     ->     6 
    9     ->     8 
    7     ->     9 
davidson 9 16  |r|= 1.49  e= [0.01662738 0.01838522 0.03371819 0.05132243 0.05201515 0.05386754
 0.06479916 0.09826374 0.25718451 0.26874839]  max|de|= 0.165  lindep= 0.368
Old state -> New state
    1     ->     0 
    0     ->     1 
    1     ->     2 
    2     ->     3 
    2     ->     4 
    3     ->     5 
    4     ->     6 
    5     ->     7 
    2     ->     8 
    6     ->     9 
root 7 converged  |r|= 8.93e-07  e= 0.053867542699336045  max|de|= 2e-10
davidson 10 22  |r|= 0.899  e= [0.00230631 0.01662738 0.01838522 0.03369547 0.03723761 0.05132224
 0.05201515 0.05386754 0.09498016 0.11958559]  max|de|= 0.0613  lindep= 0.171
Old state -> New state
    1     ->     0 
    2     ->     1 
    3     ->     2 
    0     ->     4 
    9     ->     8 
    8     ->     9 
davidson 11 28  |r|=  1.2  e= [0.01662738 0.01838522 0.03340778 0.03364454 0.04900999 0.05132148
 0.05201515 0.05386754 0.1608291  0.21768135]  max|de|= 0.123  lindep= 0.135
Old state -> New state
    3     ->     2 
    5     ->     4 
    6     ->     5 
    7     ->     6 
    3     ->     7 
    5     ->     8 
    4     ->     9 
davidson 12 35  |r|= 1.22  e= [0.01662738 0.01838522 0.03329856 0.03371434 0.05132251 0.05201515
 0.05386754 0.05789101 0.07088861 0.15364319]  max|de|= 0.105  lindep= 0.0734
Old state -> New state
    3     ->     2 
    2     ->     4 
    4     ->     5 
    5     ->     6 
    6     ->     7 
    7     ->     8 
    8     ->     9 
davidson 13 42  |r|= 1.15  e= [0.01662738 0.01838522 0.01994857 0.0337132  0.03683021 0.05132213
 0.05201515 0.05386754 0.11490876 0.15987254]  max|de|= 0.089  lindep= 0.151
Old state -> New state
    3     ->     2 
    5     ->     3 
    6     ->     4 
    7     ->     5 
    3     ->     6 
    4     ->     7 
    9     ->     8 
    4     ->     9 
root 5 converged  |r|= 5.69e-08  e= 0.05386754181633821  max|de|= 2.62e-10
davidson 14 48  |r|= 1.03  e= [0.01662738 0.01838522 0.03371356 0.0513224  0.05201515 0.05386754
 0.1259204  0.17472161 0.17681478 0.20990805]  max|de|= 0.173  lindep= 0.195
Old state -> New state
    7     ->     6 
    2     ->     7 
    7     ->     9 
davidson 15 54  |r|= 1.23  e= [0.01662738 0.01838522 0.03371366 0.05132229 0.05201515 0.05386754
 0.08275067 0.13218013 0.1745669  0.18473151]  max|de|= 0.0985  lindep= 0.226
Old state -> New state
    2     ->     3 
    3     ->     4 
    4     ->     5 
    5     ->     6 
    6     ->     7 
    9     ->     8 
    8     ->     9 
davidson 16 60  |r|= 1.02  e= [0.01662738 0.01838522 0.03326442 0.03371359 0.0513223  0.05201515
 0.05386754 0.09215552 0.16278101 0.16832439]  max|de|= -0.022  lindep= 0.156
Old state -> New state
    2     ->     0 
    0     ->     1 
    1     ->     2 
    2     ->     7 
davidson 17 66  |r|= 1.39  e= [0.01063501 0.01662738 0.01838522 0.0337136  0.05132231 0.05201515
 0.05386754 0.13012216 0.15828114 0.16728572]  max|de|= 0.0969  lindep= 0.0648
Old state -> New state
    1     ->     0 
    2     ->     1 
    3     ->     2 
    4     ->     3 
    5     ->     4 
    6     ->     5 
    4     ->     6 
    8     ->     7 
    9     ->     8 
root 2 converged  |r|= 7.25e-08  e= 0.03371360520380198  max|de|= 9.23e-10
root 3 converged  |r|= 3.04e-07  e= 0.05132230810324598  max|de|= -6.3e-12
davidson 18 70  |r|= 1.01  e= [0.01662738 0.01838522 0.03371361 0.05132231 0.05201515 0.05386754
 0.06002566 0.15823553 0.15938774 0.16795964]  max|de|= 0.0087  lindep= 0.159
Old state -> New state
    7     ->     8 
davidson 19 75  |r|= 1.23  e= [0.01662738 0.01838522 0.03371361 0.05132231 0.05201515 0.05386754
 0.0963314  0.1529678  0.15820832 0.16741679]  max|de|= 0.0363  lindep= 0.204
Old state -> New state
    0     ->     1 
    1     ->     2 
    2     ->     3 
    3     ->     4 
    4     ->     5 
    5     ->     6 
    8     ->     7 
    7     ->     8 
root 5 converged  |r|= 3.25e-07  e= 0.05201515049666065  max|de|= -1.15e-10
davidson 20 79  |r|= 0.988  e= [0.00380268 0.01662738 0.01838522 0.03371361 0.05132231 0.05201515
 0.05386754 0.15624263 0.15756902 0.16608953]  max|de|= -0.0128  lindep= 0.105
davidson 21 10  |r|= 0.988  e= [0.00380268 0.01662738 0.01838522 0.03371361 0.05132231 0.05201515
 0.05386754 0.15624263 0.15756902 0.16608953]  max|de|= 7.22e-16  lindep= 0.432
Old state -> New state
    1     ->     0 
    2     ->     1 
    3     ->     2 
    3     ->     7 
    7     ->     8 
    8     ->     9 
davidson 22 14  |r|= 1.22  e= [0.01662738 0.01838522 0.03044374 0.0337136  0.05132231 0.05201515
 0.05386754 0.10226827 0.15629352 0.1599539 ]  max|de|= 0.0686  lindep= 0.218
Old state -> New state
    3     ->     2 
    2     ->     7 
    7     ->     8 
    8     ->     9 
davidson 23 18  |r|= 0.954  e= [0.01662738 0.01838522 0.03371364 0.03463951 0.05132231 0.05201515
 0.05386754 0.07077414 0.14555153 0.15635798]  max|de|= 0.0433  lindep= 0.229
Old state -> New state
    4     ->     3 
    5     ->     4 
    6     ->     5 
    7     ->     6 
    2     ->     7 
    9     ->     8 
davidson 24 23  |r|= 0.975  e= [0.01662738 0.01838522 0.03371361 0.05132231 0.05201515 0.05386754
 0.08020743 0.11707268 0.15589478 0.15623949]  max|de|= 0.0834  lindep= 0.182
Old state -> New state
    9     ->     6 
    8     ->     7 
    7     ->     8 
    7     ->     9 
root 3 converged  |r|= 8.12e-08  e= 0.051322308880419325  max|de|= -1.26e-10
davidson 25 27  |r|= 0.648  e= [0.01662738 0.01838522 0.03371361 0.05132231 0.05201515 0.05386754
 0.15627535 0.15735679 0.16630309 0.21025433]  max|de|= 0.0932  lindep= 0.506
Old state -> New state
    2     ->     0 
    0     ->     1 
    1     ->     2 
    2     ->     3 
    3     ->     4 
    4     ->     5 
    5     ->     6 
    6     ->     8 
    7     ->     9 
root 3 converged  |r|= 1.38e-08  e= 0.03371360604708701  max|de|= -3.52e-10
davidson 26 31  |r|= 1.24  e= [0.0100241  0.01662738 0.01838522 0.03371361 0.05132231 0.05201515
 0.05386754 0.15464536 0.15622119 0.15784528]  max|de|= -0.0237  lindep= 0.173
Old state -> New state
    1     ->     0 
    2     ->     1 
    3     ->     2 
    4     ->     3 
    5     ->     4 
    6     ->     5 
    0     ->     6 
    8     ->     7 
    9     ->     8 
    7     ->     9 
davidson 27 35  |r|= 0.653  e= [0.01662738 0.01838522 0.03371361 0.05132231 0.05201515 0.05386754
 0.1416278  0.1562852  0.15774637 0.16618232]  max|de|= 0.132  lindep= 0.31
davidson 28 39  |r|= 0.872  e= [0.01662738 0.01838522 0.03371361 0.05132231 0.05201515 0.05386754
 0.12569578 0.1562824  0.15714209 0.16640985]  max|de|= -0.0159  lindep= 0.276
Old state -> New state
    2     ->     0 
    0     ->     1 
    1     ->     2 
    2     ->     3 
    3     ->     4 
    4     ->     5 
    5     ->     6 
davidson 29 43  |r|= 0.822  e= [0.01135955 0.01662738 0.01838522 0.03371361 0.05132231 0.05201515
 0.05386754 0.1562814  0.1569983  0.16599138]  max|de|= -0.0224  lindep= 0.127
Old state -> New state
    1     ->     0 
    2     ->     1 
    3     ->     2 
    4     ->     3 
    5     ->     4 
    6     ->     5 
    9     ->     6 
davidson 30 47  |r|= 0.854  e= [0.01662738 0.01838522 0.03371361 0.05132231 0.05201515 0.05386754
 0.15303494 0.15630569 0.15699447 0.16604197]  max|de|= -0.013  lindep= 0.245
Old state -> New state
    7     ->     6 
    8     ->     7 
davidson 31 51  |r|= 0.627  e= [0.01662738 0.01838522 0.03371361 0.05132231 0.05201515 0.05386754
 0.15628077 0.15655786 0.15891968 0.1660603 ]  max|de|= 0.00193  lindep= 0.382
Old state -> New state
    2     ->     6 
    6     ->     7 
    7     ->     8 
davidson 32 55  |r|= 0.959  e= [0.01662738 0.01838522 0.03371361 0.05132231 0.05201515 0.05386754
 0.10260612 0.15628057 0.15696481 0.16601597]  max|de|= 0.0689  lindep= 0.246
Old state -> New state
    1     ->     0 
    0     ->     1 
    1     ->     2 
    2     ->     3 
    3     ->     4 
    4     ->     5 
    5     ->     6 
    9     ->     7 
    7     ->     8 
    8     ->     9 
davidson 33 59  |r|= 1.02  e= [0.01115305 0.01662738 0.01838522 0.03371361 0.05132231 0.05201515
 0.05386754 0.15225059 0.15628563 0.15696172]  max|de|= -0.0138  lindep= 0.161
Old state -> New state
    3     ->     7 
davidson 34 63  |r|= 1.22  e= [0.01199032 0.01662738 0.01838522 0.03371361 0.05132231 0.05201515
 0.05386754 0.09417405 0.1562806  0.15696558]  max|de|= 0.0605  lindep= 0.0282
Old state -> New state
    0     ->     7 
davidson 35 67  |r|= 1.32  e= [0.00364153 0.01662738 0.01838522 0.03371361 0.05132231 0.05201515
 0.05386754 0.11578586 0.15628056 0.15696473]  max|de|= 0.104  lindep= 0.0405
Old state -> New state
    0     ->     7 
davidson 36 71  |r|= 1.04  e= [0.00164385 0.01662738 0.01838522 0.03371361 0.05132231 0.05201515
 0.05386754 0.09411575 0.15628061 0.15696485]  max|de|= 0.0905  lindep= 0.0197
davidson 37 75  |r|= 1.26  e= [0.0017292  0.01662738 0.01838522 0.03371361 0.05132231 0.05201515
 0.05386754 0.11554626 0.15628058 0.15696427]  max|de|= 0.0214  lindep= 0.00626
Old state -> New state
    1     ->     0 
    2     ->     1 
    3     ->     2 
    4     ->     3 
    5     ->     4 
    4     ->     5 
    8     ->     7 
davidson 38 79  |r|= 0.968  e= [0.01662738 0.01838522 0.03371361 0.05132231 0.05201515 0.05275878
 0.05386754 0.14546842 0.15628048 0.1569646 ]  max|de|= -0.0108  lindep= 0.143
root 3 converged  |r|= 1.47e-06  e= 0.051322306790609985  max|de|= -1.1e-15
davidson 39 10  |r|= 0.968  e= [0.01662738 0.01838522 0.03371361 0.05132231 0.05201515 0.05275878
 0.05386754 0.14546842 0.15628048 0.1569646 ]  max|de|= 1.26e-13  lindep= 0.317
Old state -> New state
    2     ->     3 
    3     ->     4 
    4     ->     5 
    5     ->     7 
davidson 40 14  |r|= 0.677  e= [0.01662738 0.01838522 0.03371361 0.0397768  0.05132231 0.05201515
 0.05386754 0.12177543 0.15628058 0.15696492]  max|de|= 0.069  lindep= 0.161
Old state -> New state
    2     ->     3 
    2     ->     7 
davidson 41 18  |r|= 0.94  e= [0.01662738 0.01838522 0.03371361 0.04147492 0.05132231 0.05201515
 0.05386754 0.11685329 0.15628052 0.15696561]  max|de|= 0.0831  lindep= 0.306
Old state -> New state
    2     ->     7 
root 4 converged  |r|= 3.68e-07  e= 0.051322310634770156  max|de|= 3.74e-10
davidson 42 22  |r|= 0.614  e= [0.01662738 0.01838522 0.03371361 0.04263191 0.05132231 0.05201515
 0.05386754 0.05629427 0.15628057 0.15697948]  max|de|= 0.0226  lindep= 0.166
Old state -> New state
    2     ->     0 
    0     ->     1 
    1     ->     2 
    2     ->     3 
davidson 43 26  |r|= 1.04  e= [0.0156987  0.01662738 0.01838522 0.03371361 0.05132231 0.05201515
 0.05386754 0.12240678 0.1562806  0.15696262]  max|de|= 0.0661  lindep= 0.117
Old state -> New state
    1     ->     0 
    2     ->     1 
    3     ->     2 
    4     ->     3 
    5     ->     4 
    6     ->     5 
    3     ->     6 
    8     ->     7 
    9     ->     8 
    3     ->     9 
root 3 converged  |r|= 6.71e-08  e= 0.051322309028854526  max|de|= 3.3e-10
davidson 44 31  |r|= 1.03  e= [0.01662738 0.01838522 0.03371361 0.05132231 0.05201515 0.05386754
 0.07647409 0.15628059 0.15696298 0.16839032]  max|de|= 0.135  lindep= 0.212
Old state -> New state
    6     ->     9 
root 0 converged  |r|= 4.46e-08  e= 0.016627378632840136  max|de|= -1.12e-11
davidson 45 35  |r|=  1.2  e= [0.01662738 0.01838522 0.03371361 0.05132231 0.05201515 0.05386754
 0.13331976 0.1562806  0.1569623  0.19893447]  max|de|= 0.122  lindep= 0.296
Old state -> New state
    2     ->     0 
    0     ->     1 
    1     ->     2 
    2     ->     3 
    3     ->     4 
    4     ->     5 
    5     ->     6 
    2     ->     7 
    7     ->     8 
    8     ->     9 
davidson 46 39  |r|= 1.01  e= [0.00212033 0.01662738 0.01838522 0.03371361 0.05132231 0.05201515
 0.05386754 0.11410996 0.15628061 0.156962  ]  max|de|= 0.0804  lindep= 0.173
Old state -> New state
    1     ->     0 
    2     ->     1 
    3     ->     2 
    0     ->     7 
davidson 47 43  |r|= 1.17  e= [0.01662738 0.01838522 0.02700412 0.03371361 0.05132231 0.05201515
 0.05386754 0.09380419 0.1562806  0.15696178]  max|de|= 0.0917  lindep= 0.205
Old state -> New state
    1     ->     2 
    2     ->     7 
davidson 48 47  |r|= 0.892  e= [0.01662738 0.01838522 0.01916719 0.03371361 0.05132231 0.05201515
 0.05386754 0.13899886 0.1562806  0.15696213]  max|de|= 0.112  lindep= 0.0398
Old state -> New state
    3     ->     2 
    4     ->     3 
    5     ->     4 
    6     ->     5 
    7     ->     6 
    8     ->     7 
    9     ->     8 
    7     ->     9 
root 7 converged  |r|= 1e-06  e= 0.15628059868320443  max|de|= 2.3e-10
davidson 49 51  |r|= 1.15  e= [0.01662738 0.01838522 0.03371361 0.05132231 0.05201515 0.05386754
 0.13734006 0.1562806  0.15696216 0.18772062]  max|de|= 0.0487  lindep= 0.312
Old state -> New state
    7     ->     6 
    8     ->     7 
    9     ->     8 
root 1 converged  |r|= 2.31e-08  e= 0.01838521918246935  max|de|= 4.68e-12
davidson 50 54  |r|= 0.311  e= [0.01662738 0.01838522 0.03371361 0.05132231 0.05201515 0.05386754
 0.1562806  0.15696202 0.18548448 0.23300555]  max|de|= 0.0453  lindep= 0.473
Old state -> New state
    8     ->     6 
    6     ->     7 
    7     ->     8 
    8     ->     9 
davidson 51 57  |r|= 0.568  e= [0.01662738 0.01838522 0.03371361 0.05132231 0.05201515 0.05386754
 0.13773057 0.1562806  0.15696212 0.18722999]  max|de|= -0.0478  lindep= 0.384
Old state -> New state
    7     ->     6 
    8     ->     7 
    6     ->     8 
root 6 converged  |r|= 5.68e-07  e= 0.1562805976101264  max|de|= -4.03e-10
davidson 52 61  |r|= 0.187  e= [0.01662738 0.01838522 0.03371361 0.05132231 0.05201515 0.05386754
 0.1562806  0.15696208 0.16701912 0.20378929]  max|de|= 0.0293  lindep= 0.611
Old state -> New state
    9     ->     0 
    0     ->     1 
    1     ->     2 
    2     ->     3 
    3     ->     4 
    4     ->     5 
    5     ->     6 
    6     ->     7 
    7     ->     8 
    8     ->     9 
davidson 53 64  |r|= 0.909  e= [0.00136562 0.01662738 0.01838522 0.03371361 0.05132231 0.05201515
 0.05386754 0.1562806  0.15696206 0.16652757]  max|de|= -0.202  lindep= 0.0968
Old state -> New state
    1     ->     0 
    2     ->     1 
    3     ->     2 
    4     ->     3 
    5     ->     4 
    6     ->     5 
    0     ->     6 
davidson 54 67  |r|= 1.27  e= [0.01662738 0.01838522 0.03371361 0.05132231 0.05201515 0.05386754
 0.11357558 0.1562806  0.15696202 0.16627553]  max|de|= 0.112  lindep= 0.181
Old state -> New state
    7     ->     6 
    8     ->     7 
    9     ->     8 
    6     ->     9 
davidson 55 70  |r|= 0.0894  e= [0.01662738 0.01838522 0.03371361 0.05132231 0.05201515 0.05386754
 0.1562806  0.15696201 0.16626706 0.20247732]  max|de|= 0.0889  lindep= 0.258
davidson 56 73  |r|= 0.0663  e= [0.01662738 0.01838522 0.03371361 0.05132231 0.05201515 0.05386754
 0.1562806  0.15696203 0.16597642 0.20044976]  max|de|= -0.00203  lindep= 0.558
davidson 57 76  |r|= 0.0926  e= [0.01662738 0.01838522 0.03371361 0.05132231 0.05201515 0.05386754
 0.1562806  0.15696201 0.16605251 0.20034478]  max|de|= -0.000105  lindep= 0.673
davidson 58 79  |r|= 0.395  e= [0.01662738 0.01838522 0.03371361 0.05132231 0.05201515 0.05386754
 0.1562806  0.15696201 0.16605858 0.19492017]  max|de|= -0.00542  lindep= 0.538
root 7 converged  |r|= 2.7e-06  e= 0.15696201195893467  max|de|= -2.22e-16
davidson 59 10  |r|= 0.395  e= [0.01662738 0.01838522 0.03371361 0.05132231 0.05201515 0.05386754
 0.1562806  0.15696201 0.16605858 0.19492017]  max|de|= 1.94e-15  lindep= 0.922
Old state -> New state
    2     ->     6 
    6     ->     7 
    7     ->     8 
    8     ->     9 
davidson 60 12  |r|= 0.681  e= [0.01662738 0.01838522 0.03371361 0.05132231 0.05201515 0.05386754
 0.05883603 0.1562806  0.15696201 0.16607798]  max|de|= 0.0251  lindep= 0.334
root 8 converged  |r|= 3.87e-06  e= 0.15696200767305635  max|de|= 5.28e-10
davidson 61 15  |r|= 0.828  e= [0.01662738 0.01838522 0.03371361 0.05132231 0.05201515 0.05386754
 0.12137785 0.1562806  0.15696201 0.16597389]  max|de|= 0.0625  lindep= 0.435
Old state -> New state
    7     ->     6 
    8     ->     7 
    9     ->     8 
    6     ->     9 
davidson 62 17  |r|= 0.243  e= [0.01662738 0.01838522 0.03371361 0.05132231 0.05201515 0.05386754
 0.1562806  0.15696201 0.1659606  0.21007746]  max|de|= 0.0887  lindep= 0.377
davidson 63 19  |r|= 0.105  e= [0.01662738 0.01838522 0.03371361 0.05132231 0.05201515 0.05386754
 0.1562806  0.15696201 0.16596532 0.21035424]  max|de|= 0.000277  lindep= 0.241
Old state -> New state
    2     ->     6 
    9     ->     7 
    6     ->     8 
    7     ->     9 
davidson 64 21  |r|= 0.82  e= [0.01662738 0.01838522 0.03371361 0.05132231 0.05201515 0.05386754
 0.06455094 0.14859189 0.1562806  0.15696201]  max|de|= -0.0618  lindep= 0.278
Old state -> New state
    8     ->     6 
    9     ->     7 
    6     ->     8 
    2     ->     9 
root 7 converged  |r|= 6.58e-06  e= 0.15696200637036678  max|de|= 2.29e-10
davidson 65 24  |r|= 0.196  e= [0.01662738 0.01838522 0.03371361 0.05132231 0.05201515 0.05386754
 0.1562806  0.15696201 0.16378549 0.16646565]  max|de|= 0.133  lindep= 0.533
Old state -> New state
    3     ->     4 
    4     ->     5 
    5     ->     6 
    6     ->     7 
    7     ->     8 
davidson 66 26  |r|= 0.647  e= [0.01662738 0.01838522 0.03371361 0.04913619 0.05132231 0.05201515
 0.05386754 0.1562806  0.15696201 0.16598508]  max|de|= -0.00219  lindep= 0.188
Old state -> New state
    2     ->     3 
root 8 converged  |r|= 9.33e-06  e= 0.15696200873685512  max|de|= 5.22e-10
davidson 67 28  |r|= 0.481  e= [0.01662738 0.01838522 0.03371361 0.03804823 0.05132231 0.05201515
 0.05386754 0.1562806  0.15696201 0.16270387]  max|de|= 0.00433  lindep= 0.251
Old state -> New state
    2     ->     3 
davidson 68 30  |r|= 0.309  e= [0.01662738 0.01838522 0.02963886 0.03371361 0.05132231 0.05201515
 0.05386754 0.1562806  0.15696201 0.16601619]  max|de|= -0.00407  lindep= 0.115
Old state -> New state
    0     ->     1 
    1     ->     2 
    3     ->     7 
    7     ->     8 
    8     ->     9 
davidson 69 32  |r|= 1.23  e= [0.01122782 0.01662738 0.01838522 0.03371361 0.05132231 0.05201515
 0.05386754 0.07204796 0.1562806  0.15696201]  max|de|= 0.0383  lindep= 0.19
Old state -> New state
    1     ->     0 
    2     ->     1 
    3     ->     2 
    4     ->     3 
    5     ->     4 
    6     ->     5 
    0     ->     6 
    8     ->     7 
    9     ->     8 
    3     ->     9 
davidson 70 34  |r|= 1.08  e= [0.01662738 0.01838522 0.03371361 0.05132231 0.05201515 0.05386754
 0.13048199 0.1562806  0.15696201 0.16601093]  max|de|= 0.132  lindep= 0.159
davidson 71 36  |r|= 0.841  e= [0.01662738 0.01838522 0.03371361 0.05132231 0.05201515 0.05386754
 0.15311065 0.1562806  0.156962   0.16602103]  max|de|= 0.0226  lindep= 0.351
Old state -> New state
    2     ->     6 
    2     ->     7 
    7     ->     8 
    8     ->     9 
davidson 72 39  |r|= 0.974  e= [0.01662738 0.01838522 0.03371361 0.05132231 0.05201515 0.05386754
 0.06057044 0.12354712 0.1562806  0.15696201]  max|de|= 0.0898  lindep= 0.111
Old state -> New state
    8     ->     6 
    9     ->     7 
    7     ->     8 
    6     ->     9 
root 7 converged  |r|= 3.77e-07  e= 0.15696200746036004  max|de|= -7.15e-10
davidson 73 41  |r|= 0.768  e= [0.01662738 0.01838522 0.03371361 0.05132231 0.05201515 0.05386754
 0.1562806  0.15696201 0.16600855 0.17573022]  max|de|= 0.115  lindep= 0.349
davidson 74 43  |r|= 0.03  e= [0.01662738 0.01838522 0.03371361 0.05132231 0.05201515 0.05386754
 0.1562806  0.15696201 0.16600706 0.20144279]  max|de|= 0.0257  lindep= 0.143
Old state -> New state
    2     ->     6 
    6     ->     7 
    7     ->     8 
    8     ->     9 
davidson 75 45  |r|= 1.06  e= [0.01662738 0.01838522 0.03371361 0.05132231 0.05201515 0.05386754
 0.12602718 0.1562806  0.15696201 0.16600298]  max|de|= 0.0923  lindep= 0.331
Old state -> New state
    7     ->     6 
    8     ->     7 
    9     ->     8 
    6     ->     9 
davidson 76 47  |r|= 0.231  e= [0.01662738 0.01838522 0.03371361 0.05132231 0.05201515 0.05386754
 0.1562806  0.15696201 0.16600583 0.21380516]  max|de|= 0.0878  lindep= 0.51
Old state -> New state
    3     ->     6 
    6     ->     7 
    7     ->     8 
    8     ->     9 
davidson 77 49  |r|= 0.855  e= [0.01662738 0.01838522 0.03371361 0.05132231 0.05201515 0.05386754
 0.06892771 0.1562806  0.15696201 0.16600589]  max|de|= 0.0176  lindep= 0.16
davidson 78 51  |r|= 1.28  e= [0.01662738 0.01838522 0.03371361 0.05132231 0.05201515 0.05386754
 0.10277576 0.1562806  0.15696201 0.16600602]  max|de|= 0.0338  lindep= 0.209
Old state -> New state
    7     ->     6 
    8     ->     7 
    9     ->     8 
    6     ->     9 
davidson 79 53  |r|= 0.0268  e= [0.01662738 0.01838522 0.03371361 0.05132231 0.05201515 0.05386754
 0.1562806  0.15696201 0.16600592 0.20078239]  max|de|= 0.098  lindep= 0.56
davidson 80 55  |r|= 0.123  e= [0.01662738 0.01838522 0.03371361 0.05132231 0.05201515 0.05386754
 0.1562806  0.15696201 0.16600595 0.19855126]  max|de|= -0.00223  lindep= 0.131
davidson 81 57  |r|= 0.0284  e= [0.01662738 0.01838522 0.03371361 0.05132231 0.05201515 0.05386754
 0.1562806  0.15696201 0.16600595 0.19933637]  max|de|= 0.000785  lindep= 0.558
davidson 82 59  |r|= 0.0682  e= [0.01662738 0.01838522 0.03371361 0.05132231 0.05201515 0.05386754
 0.1562806  0.15696201 0.16600596 0.19837234]  max|de|= -0.000964  lindep= 0.422
davidson 83 61  |r|= 0.0301  e= [0.01662738 0.01838522 0.03371361 0.05132231 0.05201515 0.05386754
 0.1562806  0.15696201 0.16600597 0.19837865]  max|de|= 6.3e-06  lindep= 0.697
davidson 84 63  |r|= 0.0598  e= [0.01662738 0.01838522 0.03371361 0.05132231 0.05201515 0.05386754
 0.1562806  0.15696201 0.16600597 0.19788862]  max|de|= -0.00049  lindep= 0.108
davidson 85 65  |r|= 0.0196  e= [0.01662738 0.01838522 0.03371361 0.05132231 0.05201515 0.05386754
 0.1562806  0.15696201 0.16600597 0.19772373]  max|de|= -0.000165  lindep= 0.872
root 8 converged  |r|= 3.81e-07  e= 0.16600597309308585  max|de|= 2.33e-10
davidson 86 66  |r|= 0.0158  e= [0.01662738 0.01838522 0.03371361 0.05132231 0.05201515 0.05386754
 0.1562806  0.15696201 0.16600597 0.19772686]  max|de|= 3.13e-06  lindep= 0.0868
davidson 87 67  |r|= 0.00671  e= [0.01662738 0.01838522 0.03371361 0.05132231 0.05201515 0.05386754
 0.1562806  0.15696201 0.16600597 0.19763821]  max|de|= -8.87e-05  lindep= 0.896
Old state -> New state
    2     ->     3 
    3     ->     4 
    4     ->     5 
    5     ->     6 
    6     ->     7 
    7     ->     8 
    8     ->     9 
root 9 converged  |r|= 2.54e-07  e= 0.1660059746586456  max|de|= 1.84e-10
davidson 88 68  |r|= 0.759  e= [0.01662738 0.01838522 0.0252672  0.03371361 0.05132231 0.05201515
 0.05386754 0.1562806  0.15696201 0.16600597]  max|de|= -0.00845  lindep= 0.114
Old state -> New state
    2     ->     0 
    0     ->     1 
    1     ->     2 
davidson 89 69  |r|= 1.05  e= [0.00740438 0.01662738 0.01838522 0.03371361 0.05132231 0.05201515
 0.05386754 0.1562806  0.15696201 0.16600597]  max|de|= -0.0179  lindep= 0.0408
Old state -> New state
    1     ->     0 
    2     ->     1 
    3     ->     2 
    4     ->     3 
    5     ->     4 
    6     ->     5 
    0     ->     6 
davidson 90 70  |r|= 1.33  e= [0.01662738 0.01838522 0.03371361 0.05132231 0.05201515 0.05386754
 0.11563652 0.1562806  0.15696201 0.16600597]  max|de|= 0.108  lindep= 0.22
Old state -> New state
    7     ->     6 
    8     ->     7 
    9     ->     8 
    6     ->     9 
davidson 91 71  |r|= 0.0115  e= [0.01662738 0.01838522 0.03371361 0.05132231 0.05201515 0.05386754
 0.1562806  0.15696201 0.16600597 0.19760798]  max|de|= 0.082  lindep= 0.499
davidson 92 72  |r|= 0.00528  e= [0.01662738 0.01838522 0.03371361 0.05132231 0.05201515 0.05386754
 0.1562806  0.15696201 0.16600597 0.1976094 ]  max|de|= 1.42e-06  lindep= 0.354
davidson 93 73  |r|= 0.0364  e= [0.01662738 0.01838522 0.03371361 0.05132231 0.05201515 0.05386754
 0.1562806  0.15696201 0.16600597 0.19754884]  max|de|= -6.06e-05  lindep= 0.577
davidson 94 74  |r|= 0.00353  e= [0.01662738 0.01838522 0.03371361 0.05132231 0.05201515 0.05386754
 0.1562806  0.15696201 0.16600597 0.19758517]  max|de|= 3.63e-05  lindep= 0.388
davidson 95 75  |r|= 0.00623  e= [0.01662738 0.01838522 0.03371361 0.05132231 0.05201515 0.05386754
 0.1562806  0.15696201 0.16600597 0.19758126]  max|de|= -3.91e-06  lindep=  0.7
davidson 96 76  |r|= 0.00143  e= [0.01662738 0.01838522 0.03371361 0.05132231 0.05201515 0.05386754
 0.1562806  0.15696201 0.16600597 0.19758123]  max|de|= -3.11e-08  lindep= 0.485
davidson 97 77  |r|= 0.00194  e= [0.01662738 0.01838522 0.03371361 0.05132231 0.05201515 0.05386754
 0.1562806  0.15696201 0.16600597 0.1975808 ]  max|de|= -4.36e-07  lindep= 0.794
davidson 98 10  |r|= 0.00194  e= [0.01662738 0.01838522 0.03371361 0.05132231 0.05201515 0.05386754
 0.1562806  0.15696201 0.16600597 0.1975808 ]  max|de|= 4.83e-15  lindep= 0.993
davidson 99 11  |r|= 0.00089  e= [0.01662738 0.01838522 0.03371361 0.05132231 0.05201515 0.05386754
 0.1562806  0.15696201 0.16600597 0.19758175]  max|de|= 9.55e-07  lindep= 0.704
    CPU time for TDDFT   1170.62 sec, wall time     42.03 sec
TD-SCF states [9] not converged.
Excited State energies (eV)
[0.45245402 0.5002873  0.91739394 1.39655116 1.41540434 1.46581047
 4.25261168 4.27115379 4.51725265 5.37647334]
