 
:: initializing oneAPI environment ...
   slurm_script: BASH_VERSION = 4.2.46(1)-release
   args: Using "$@" for setvars.sh arguments: --force
:: advisor -- latest
:: ccl -- latest
:: clck -- latest
:: compiler -- latest
:: dal -- latest
:: debugger -- latest
:: dev-utilities -- latest
:: dnnl -- latest
:: dpcpp-ct -- latest
:: dpl -- latest
:: inspector -- latest
:: intelpython -- latest
:: ipp -- latest
:: ippcp -- latest
:: ipp -- latest
:: itac -- latest
:: mkl -- latest
:: mpi -- latest
:: tbb -- latest
:: vpl -- latest
:: vtune -- latest
:: oneAPI environment initialized ::
 
SLURM_CPUS_PER_TASK = 28
SLURM_MEM_PER_NODE = 127949
#INFO: **** input file is /home/yangjunjie/work/py-ch3-cl/work/step_-18/main.py ****
import sys
import pyscf
from pyscf import tdscf

def main(xyz_file, basis="631g*", xc="b3lyp", output="ene.out"):
    xyz = None

    with open(xyz_file, "r") as xyz:
        xyz = xyz.readlines()[2:]
        xyz = "".join(xyz)

    mol = pyscf.gto.Mole()
    mol.atom = xyz
    mol.basis = basis
    mol.verbose = 5
    mol.build()

    if xc is not None and xc != "hf":
        mf = pyscf.scf.RKS(mol)
        mf.xc = xc
        mf.kernel()
    else:
        mf = pyscf.scf.RHF(mol)
        mf.kernel()

    ene_mf = mf.e_tot

    tda = pyscf.tdscf.TDA(mf)
    tda.nstates = 10
    tda.kernel()
    ene_tda = tda.e[:5]
    dip_tda = tda.transition_dipole()[:5]

    rpa = pyscf.tdscf.RPA(mf)
    rpa.nstates = 10
    rpa.kernel()
    ene_rpa = rpa.e[:5]
    dip_rpa = rpa.transition_dipole()[:5]

    with open(output, "w") as f:
        f.write(f"RKS energy: {ene_mf: 12.8f}\n")
        f.write("TDA results:\n")
        for i, (ene, dip) in enumerate(zip(ene_tda, dip_tda)):
            f.write(f" {i:2d} {ene: 12.8f} {dip[0]: 12.8f} {dip[1]: 12.8f} {dip[2]: 12.8f}\n")
        
        f.write("\nRPA results:\n")
        for i, (ene, dip) in enumerate(zip(ene_rpa, dip_rpa)):
            f.write(f" {i:2d} {ene: 12.8f} {dip[0]: 12.8f} {dip[1]: 12.8f} {dip[2]: 12.8f}\n")

if __name__ == "__main__":
    xyz = sys.argv[1]
    main(xyz, basis="631g*", xc="b3lyp", output="out.log")
#INFO: ******************** input file end ********************


System: uname_result(system='Linux', node='pauling038', release='3.10.0-327.36.3.el7.x86_64', version='#1 SMP Thu Oct 20 04:56:07 EDT 2016', machine='x86_64')  Threads 28
Python 3.9.7 (default, Oct 27 2021, 01:23:21) 
[GCC 9.3.0]
numpy 1.21.2  scipy 1.6.2
Date: Tue Sep 27 23:10:10 2022
PySCF version 2.0.1
PySCF path  /home/yangjunjie/packages/pyscf/pyscf-main
GIT ORIG_HEAD 14b880cdc4bf7bb64f3989a147c0b04622efc498
GIT HEAD (branch master) 9d5b5bd309d1cc55fbd1a0ec76e26b5b0c7f76af

[ENV] PYSCF_MAX_MEMORY 127949
[ENV] PYSCF_TMPDIR /scratch/global/yangjunjie/
[CONFIG] conf_file /home/yangjunjie/.pyscf_conf.py
[INPUT] verbose = 5
[INPUT] max_memory = 127949 
[INPUT] num. atoms = 16
[INPUT] num. electrons = 68
[INPUT] charge = 0
[INPUT] spin (= nelec alpha-beta = 2S) = 0
[INPUT] symmetry False subgroup None
[INPUT] Mole.unit = angstrom
[INPUT]  1 C      0.000000010000   1.148816890000   1.147363280000 AA    0.000000018897   2.170949289375   2.168202364583 Bohr
[INPUT]  2 C      0.000000000000   1.199893560000   2.544833530000 AA    0.000000000000   2.267470207029   4.809038404310 Bohr
[INPUT]  3 C     -0.000000010000  -0.013393400000   3.234252190000 AA   -0.000000018897  -0.025309857877   6.111850856875 Bohr
[INPUT]  4 C     -0.000000010000  -1.213393080000   2.520757710000 AA   -0.000000018897  -2.292980602642   4.763541698286 Bohr
[INPUT]  5 C      0.000000000000  -1.133622830000   1.123115410000 AA    0.000000000000  -2.142236677254   2.122380531179 Bohr
[INPUT]  6 N      0.000000010000   0.015513870000   0.465763670000 AA    0.000000018897   0.029316965432   0.880165775072 Bohr
[INPUT]  7 C      0.000000000000   0.003957230000  -2.188503770000 AA    0.000000000000   0.007478080912  -4.135672747878 Bohr
[INPUT]  8 H      0.000000020000   2.069495340000   0.561341150000 AA    0.000000037795   3.910779408664   1.060781035948 Bohr
[INPUT]  9 H      0.000000000000   2.143868550000   3.055760840000 AA    0.000000000000   4.051324406568   5.774551089771 Bohr
[INPUT] 10 H     -0.000000020000  -0.024697280000   4.314698040000 AA   -0.000000037795  -0.046671095222   8.153597605798 Bohr
[INPUT] 11 H     -0.000000020000  -2.166589510000   3.011407420000 AA   -0.000000037795  -4.094260798256   5.690735273283 Bohr
[INPUT] 12 H      0.000000000000  -2.040518180000   0.518274050000 AA    0.000000000000  -3.856020512396   0.979396011969 Bohr
[INPUT] 13 H     -0.000000030000   1.034776290000  -1.853050820000 AA   -0.000000056692   1.955443788294  -3.501758544701 Bohr
[INPUT] 14 H     -0.891174750000  -0.503477080000  -1.836865240000 AA   -1.684076206628  -0.951433791196  -3.471172231333 Bohr
[INPUT] 15 H      0.891174780000  -0.503477040000  -1.836865240000 AA    1.684076263320  -0.951433715607  -3.471172231333 Bohr
[INPUT] 16 Cl    -0.000000010000  -0.008890740000  -4.008536710000 AA   -0.000000018897  -0.016801063645  -7.575036542165 Bohr
[INPUT] ---------------- BASIS SET ---------------- 
[INPUT] l, kappa, [nprim/nctr], expnt,             c_1 c_2 ...
[INPUT] Cl
[INPUT] 0    0    [6    /1   ]  25180.1           0.001833
                                3780.35           0.014034
                                860.474           0.069097
                                242.145           0.237452
                                77.3349           0.483034
                                26.247            0.339856
[INPUT] 0    0    [6    /1   ]  491.765           -0.0022974
                                116.984           -0.030714
                                37.4153           -0.112528
                                13.7834           0.045016
                                5.45215           0.589353
                                2.22588           0.465206
[INPUT] 0    0    [3    /1   ]  3.18649           -0.25183
                                1.14427           0.061589
                                0.420377          1.06018
[INPUT] 0    0    [1    /1   ]  0.142657             1
[INPUT] 1    0    [6    /1   ]  491.765           0.0039894
                                116.984           0.030318
                                37.4153           0.12988
                                13.7834           0.327951
                                5.45215           0.453527
                                2.22588           0.252154
[INPUT] 1    0    [3    /1   ]  3.18649           -0.014299
                                1.14427           0.323572
                                0.420377          0.743507
[INPUT] 1    0    [1    /1   ]  0.142657             1
[INPUT] 2    0    [1    /1   ]  0.75                 1
[INPUT] N
[INPUT] 0    0    [6    /1   ]  4173.511          0.0018348
                                627.4579          0.013995
                                142.9021          0.068587
                                40.23433          0.232241
                                12.82021          0.46907
                                4.390437          0.360455
[INPUT] 0    0    [3    /1   ]  11.626358         -0.114961
                                2.71628           -0.169118
                                0.772218          1.145852
[INPUT] 0    0    [1    /1   ]  0.2120313            1
[INPUT] 1    0    [3    /1   ]  11.626358         0.06758
                                2.71628           0.323907
                                0.772218          0.740895
[INPUT] 1    0    [1    /1   ]  0.2120313            1
[INPUT] 2    0    [1    /1   ]  0.8                  1
[INPUT] H
[INPUT] 0    0    [3    /1   ]  18.731137         0.0334946
                                2.8253937         0.23472695
                                0.6401217         0.81375733
[INPUT] 0    0    [1    /1   ]  0.1612778            1
[INPUT] C
[INPUT] 0    0    [6    /1   ]  3047.5249         0.0018347
                                457.36951         0.0140373
                                103.94869         0.0688426
                                29.210155         0.2321844
                                9.286663          0.4679413
                                3.163927          0.362312
[INPUT] 0    0    [3    /1   ]  7.8682724         -0.1193324
                                1.8812885         -0.1608542
                                0.5442493         1.1434564
[INPUT] 0    0    [1    /1   ]  0.1687144            1
[INPUT] 1    0    [3    /1   ]  7.8682724         0.0689991
                                1.8812885         0.316424
                                0.5442493         0.7443083
[INPUT] 1    0    [1    /1   ]  0.1687144            1
[INPUT] 2    0    [1    /1   ]  0.8                  1

nuclear repulsion = 374.424633893549
number of shells = 66
number of NR pGTOs = 272
number of NR cGTOs = 132
basis = 631g*
ecp = {}
CPU time:         0.38


******** <class 'pyscf.dft.rks.RKS'> ********
method = RKS
initial guess = minao
damping factor = 0
level_shift factor = 0
DIIS = <class 'pyscf.scf.diis.CDIIS'>
diis_start_cycle = 1
diis_space = 8
SCF conv_tol = 1e-09
SCF conv_tol_grad = None
SCF max_cycles = 50
direct_scf = True
direct_scf_tol = 1e-13
chkfile to save SCF result = /scratch/global/yangjunjie/tmp_hlq0uri
max_memory 127949 MB (current use 81 MB)
XC library pyscf.dft.libxc version 5.2.0
    S. Lehtola, C. Steigemann, M. J. Oliveira, and M. A. Marques, SoftwareX 7, 1 (2018)
XC functionals = b3lyp
    P. A. M. Dirac, Math. Proc. Cambridge Philos. Soc. 26, 376 (1930)
    F. Bloch, Z. Phys. 57, 545 (1929)
    A. D. Becke, Phys. Rev. A 38, 3098 (1988)
    C. Lee, W. Yang, and R. G. Parr, Phys. Rev. B 37, 785 (1988)
    B. Miehlich, A. Savin, H. Stoll, and H. Preuss, Chem. Phys. Lett. 157, 200 (1989)
    S. H. Vosko, L. Wilk, and M. Nusair, Can. J. Phys. 58, 1200 (1980)
radial grids: 
    Treutler-Ahlrichs [JCP 102, 346 (1995); DOI:10.1063/1.469408] (M4) radial grids
    
becke partition: Becke, JCP 88, 2547 (1988); DOI:10.1063/1.454033
pruning grids: <function nwchem_prune at 0x7f7d55d39ee0>
grids dens level: 3
symmetrized grids: False
atomic radii adjust function: <function treutler_atomic_radii_adjust at 0x7f7d55d39e50>
small_rho_cutoff = 1e-07
Set gradient conv threshold to 3.16228e-05
atom C rad-grids = 75, ang-grids = [ 50  50  50  50  50  50  50  50  50  50  50  50  50  50  50  50  50  50
  50  50  50  50  50  86  86  86  86  86  86  86  86  86  86 266 266 266
 266 266 266 266 302 302 302 302 302 302 302 302 302 302 302 302 302 302
 302 302 302 302 302 302 266 266 266 266 266 266 266 266 266 266 266 266
 266 266 266]
atom N rad-grids = 75, ang-grids = [ 50  50  50  50  50  50  50  50  50  50  50  50  50  50  50  50  50  50
  50  50  50  50  50  86  86  86  86  86  86  86  86  86 266 266 266 266
 266 266 266 302 302 302 302 302 302 302 302 302 302 302 302 302 302 302
 302 302 302 302 266 266 266 266 266 266 266 266 266 266 266 266 266 266
 266 266 266]
atom H rad-grids = 50, ang-grids = [ 50  50  50  50  50  50  50  50  50  50  50  50  50  50  86  86  86  86
 266 266 266 266 302 302 302 302 302 302 302 302 302 302 302 302 302 266
 266 266 266 266 266 266 266 266 266 266 266 266 266 266]
atom Cl rad-grids = 80, ang-grids = [ 50  50  50  50  50  50  50  50  50  50  50  50  50  50  50  50  50  50
  50  50  50  50  50  50  86  86  86  86  86  86  86  86  86  86  86  86
  86 350 350 350 350 350 350 350 350 350 434 434 434 434 434 434 434 434
 434 434 434 434 434 434 434 434 434 434 350 350 350 350 350 350 350 350
 350 350 350 350 350 350 350 350]
tot grids = 196530
Drop grids 33043
    CPU time for setting up grids      3.12 sec, wall time      0.14 sec
nelec by numeric integration = 67.97624852012875
    CPU time for vxc      6.15 sec, wall time      0.23 sec
E1 = -1762.041878403285  Ecoul = 708.9622281476546  Exc = -70.37442148685749
init E= -749.029437848939
cond(S) = 6107.43324800088
    CPU time for initialize scf     16.39 sec, wall time      0.69 sec
  HOMO = -0.292503082995204  LUMO = -0.0972935873082648
  mo_energy =
[-1.01597219e+02 -1.44095035e+01 -1.02910553e+01 -1.02902993e+01
 -1.02895578e+01 -1.02889508e+01 -1.02852338e+01 -1.02847388e+01
 -9.53819232e+00 -7.29409042e+00 -7.29287756e+00 -7.29287700e+00
 -1.10269002e+00 -9.38107324e-01 -9.30880572e-01 -8.84073559e-01
 -7.57600627e-01 -7.13271752e-01 -7.03335182e-01 -5.76982752e-01
 -5.30302543e-01 -5.13499875e-01 -4.73587558e-01 -4.72903887e-01
 -4.62840566e-01 -4.59741049e-01 -4.37162552e-01 -4.31112173e-01
 -3.97459489e-01 -3.43788325e-01 -3.42862823e-01 -3.26333906e-01
 -2.99708631e-01 -2.92503083e-01 -9.72935873e-02 -8.04379023e-02
 -3.54770027e-02  5.28189801e-02  6.79612787e-02  7.82808613e-02
  9.06454412e-02  1.13639342e-01  1.21429814e-01  1.22663257e-01
  1.44624377e-01  1.63183636e-01  1.98547577e-01  2.40431828e-01
  2.54975414e-01  2.59938087e-01  3.59722683e-01  3.82547928e-01
  4.03222150e-01  4.15093144e-01  4.15100575e-01  4.22431256e-01
  4.65384370e-01  4.75320905e-01  4.87850422e-01  5.05753477e-01
  5.27682340e-01  5.37211555e-01  5.42227469e-01  5.50849110e-01
  5.54799531e-01  5.54842548e-01  5.56335132e-01  6.07709005e-01
  6.23013710e-01  6.39198987e-01  6.76827119e-01  7.65405986e-01
  7.72102694e-01  7.87143885e-01  7.88093952e-01  7.91771708e-01
  7.98945033e-01  8.03475972e-01  8.28676261e-01  8.42990034e-01
  8.49426594e-01  8.66133836e-01  8.80355990e-01  8.98245771e-01
  9.03949620e-01  9.21538610e-01  9.80856472e-01  1.00369859e+00
  1.03539543e+00  1.07551653e+00  1.12215418e+00  1.14398037e+00
  1.15974465e+00  1.17891152e+00  1.30862502e+00  1.34643893e+00
  1.39561431e+00  1.41230039e+00  1.41524052e+00  1.43676224e+00
  1.44834466e+00  1.45553017e+00  1.62388583e+00  1.62474029e+00
  1.64117364e+00  1.70127419e+00  1.74844703e+00  1.77253165e+00
  1.86963950e+00  1.89500258e+00  1.98268850e+00  2.05116687e+00
  2.05995752e+00  2.09856702e+00  2.10422746e+00  2.12972264e+00
  2.14424650e+00  2.16715698e+00  2.18184234e+00  2.21835861e+00
  2.24984524e+00  2.30545900e+00  2.47669890e+00  2.48482712e+00
  2.57426626e+00  2.61172703e+00  2.62203682e+00  2.63549566e+00
  2.69861015e+00  2.70971599e+00  2.95875225e+00  3.31317454e+00]
nelec by numeric integration = 68.00002665057596
    CPU time for vxc      5.93 sec, wall time      0.21 sec
E1 = -1770.1024355636227  Ecoul = 718.4110316724859  Exc = -70.81953898422034
cycle= 1 E= -748.086308981808  delta_E= 0.943  |g|= 0.379  |ddm|= 3.93
    CPU time for cycle= 1      6.42 sec, wall time      0.23 sec
  HOMO = -0.196232113454046  LUMO = 0.0128491054929149
  mo_energy =
[-1.01358476e+02 -1.41899092e+01 -1.01894429e+01 -1.01882631e+01
 -1.01519630e+01 -1.01312245e+01 -1.00958889e+01 -1.00953545e+01
 -9.31418805e+00 -7.07514253e+00 -7.06514326e+00 -7.06513500e+00
 -8.98973019e-01 -7.76644769e-01 -7.58380335e-01 -7.31988167e-01
 -6.20116697e-01 -6.01718740e-01 -5.99691740e-01 -5.10305263e-01
 -4.59051625e-01 -4.38201729e-01 -4.11642491e-01 -4.03393896e-01
 -4.01086385e-01 -3.75494387e-01 -3.64359636e-01 -3.40783587e-01
 -3.39515601e-01 -2.49341071e-01 -2.36059587e-01 -2.27986655e-01
 -2.27341653e-01 -1.96232113e-01  1.28491055e-02  1.33060425e-02
  8.15160022e-02  1.10368949e-01  1.31956540e-01  1.38836958e-01
  1.60495642e-01  1.66791593e-01  1.77047979e-01  1.84601453e-01
  1.84801404e-01  2.13217541e-01  2.78257892e-01  3.13101311e-01
  3.40194258e-01  3.46655034e-01  4.64190084e-01  4.67603487e-01
  4.78306000e-01  5.13635459e-01  5.13859476e-01  5.16670286e-01
  5.34361902e-01  5.62772389e-01  5.70898219e-01  5.95502157e-01
  5.99553350e-01  6.04593199e-01  6.18770566e-01  6.26194480e-01
  6.28798692e-01  6.32923131e-01  6.62043715e-01  6.75298551e-01
  7.13337383e-01  7.17695454e-01  7.65241781e-01  8.31217283e-01
  8.48738626e-01  8.69255682e-01  8.76520980e-01  8.88382770e-01
  9.12731711e-01  9.25625072e-01  9.33664165e-01  9.48879191e-01
  9.54083593e-01  9.73832247e-01  9.79258294e-01  9.98981708e-01
  1.01784906e+00  1.02113396e+00  1.06372568e+00  1.09118836e+00
  1.10147896e+00  1.14303425e+00  1.18025738e+00  1.23436384e+00
  1.25032518e+00  1.28881353e+00  1.41088994e+00  1.42124367e+00
  1.47274800e+00  1.50977669e+00  1.51807485e+00  1.53101774e+00
  1.54902006e+00  1.56310291e+00  1.73684122e+00  1.73696002e+00
  1.73865901e+00  1.79931250e+00  1.86868731e+00  1.88084910e+00
  1.97476317e+00  1.99629666e+00  2.09726139e+00  2.16472933e+00
  2.16902234e+00  2.21041334e+00  2.21470782e+00  2.24473651e+00
  2.25466809e+00  2.27260069e+00  2.28642244e+00  2.32488948e+00
  2.37090229e+00  2.41477289e+00  2.58136075e+00  2.59688630e+00
  2.70101247e+00  2.72529718e+00  2.73877330e+00  2.76172985e+00
  2.83246444e+00  2.83414456e+00  3.09022362e+00  3.44362760e+00]
nelec by numeric integration = 68.00002431726088
    CPU time for vxc      6.32 sec, wall time      0.23 sec
E1 = -1762.6901550867722  Ecoul = 710.4160642107727  Exc = -70.23818204392111
cycle= 2 E= -748.087639026372  delta_E= -0.00133  |g|=  0.4  |ddm|= 0.971
    CPU time for cycle= 2      6.83 sec, wall time      0.24 sec
  HOMO = -0.261552133910158  LUMO = -0.0304762056061748
  mo_energy =
[-1.01470039e+02 -1.43559777e+01 -1.02131692e+01 -1.02126690e+01
 -1.02044254e+01 -1.01978865e+01 -1.01975696e+01 -1.01956367e+01
 -9.40470662e+00 -7.16755410e+00 -7.15781667e+00 -7.15780719e+00
 -9.60683667e-01 -8.13025971e-01 -8.10356274e-01 -7.69232421e-01
 -6.48358056e-01 -6.43140101e-01 -6.31309681e-01 -5.36750038e-01
 -4.87577640e-01 -4.81607680e-01 -4.38729333e-01 -4.21729041e-01
 -4.18434070e-01 -4.13339849e-01 -4.07062413e-01 -3.75897998e-01
 -3.74280775e-01 -2.98541799e-01 -2.68573709e-01 -2.64484187e-01
 -2.64047722e-01 -2.61552134e-01 -3.04762056e-02 -1.87631919e-02
  5.89392737e-02  9.22751849e-02  1.22441257e-01  1.29136628e-01
  1.38947800e-01  1.49615604e-01  1.57095891e-01  1.73319116e-01
  1.76912580e-01  2.05074173e-01  2.49629351e-01  2.88306740e-01
  3.13501148e-01  3.14648772e-01  4.36482708e-01  4.41085074e-01
  4.48812639e-01  4.86032946e-01  4.87362980e-01  4.87635471e-01
  5.06766432e-01  5.28483252e-01  5.49044377e-01  5.72671522e-01
  5.79221531e-01  5.79851502e-01  5.90396393e-01  5.94846674e-01
  5.96041220e-01  6.05641752e-01  6.20733737e-01  6.48324318e-01
  6.80749896e-01  6.89463365e-01  7.35578907e-01  8.16610011e-01
  8.26020943e-01  8.40514788e-01  8.47982295e-01  8.50196440e-01
  8.85768780e-01  8.88326639e-01  9.09845997e-01  9.16194875e-01
  9.27744516e-01  9.37667971e-01  9.38763638e-01  9.75313020e-01
  9.81824189e-01  9.85149586e-01  1.02888595e+00  1.06613700e+00
  1.07876951e+00  1.11745587e+00  1.15974835e+00  1.20278430e+00
  1.21644852e+00  1.24274790e+00  1.36988129e+00  1.38946120e+00
  1.45249513e+00  1.46083792e+00  1.47784254e+00  1.49645494e+00
  1.51048400e+00  1.51415054e+00  1.69553190e+00  1.71356189e+00
  1.71358721e+00  1.76229357e+00  1.82254097e+00  1.83428294e+00
  1.93240874e+00  1.96163810e+00  2.05513979e+00  2.12395499e+00
  2.12409779e+00  2.16581149e+00  2.17062261e+00  2.20905224e+00
  2.21815690e+00  2.25387580e+00  2.26711647e+00  2.28693940e+00
  2.32081962e+00  2.36901271e+00  2.54270570e+00  2.55026513e+00
  2.65287992e+00  2.68047699e+00  2.69320712e+00  2.71669224e+00
  2.77920802e+00  2.78641898e+00  3.03920558e+00  3.39648696e+00]
nelec by numeric integration = 68.00002412610765
    CPU time for vxc      6.11 sec, wall time      0.22 sec
E1 = -1766.167332913555  Ecoul = 714.1169469799269  Exc = -70.5012552243008
cycle= 3 E= -748.12700726438  delta_E= -0.0394  |g|= 0.0807  |ddm|= 0.482
    CPU time for cycle= 3      6.64 sec, wall time      0.24 sec
  HOMO = -0.2571202617985  LUMO = -0.0313550477668877
  mo_energy =
[-1.01493531e+02 -1.43267469e+01 -1.02304117e+01 -1.02300831e+01
 -1.02169946e+01 -1.02082149e+01 -1.02073893e+01 -1.02071284e+01
 -9.42427721e+00 -7.18741561e+00 -7.17782992e+00 -7.17781969e+00
 -9.55955704e-01 -8.19702815e-01 -8.14488121e-01 -7.74121301e-01
 -6.54396650e-01 -6.44339330e-01 -6.36700629e-01 -5.40209498e-01
 -4.90873754e-01 -4.85011210e-01 -4.43355402e-01 -4.24570121e-01
 -4.21991344e-01 -4.16113244e-01 -4.07610839e-01 -3.81880484e-01
 -3.79259802e-01 -2.98716219e-01 -2.73728756e-01 -2.72833835e-01
 -2.72276420e-01 -2.57120262e-01 -3.13550478e-02 -2.30674652e-02
  5.39348513e-02  9.01706622e-02  1.20551255e-01  1.27074715e-01
  1.36742236e-01  1.48374667e-01  1.55826748e-01  1.72068322e-01
  1.75522003e-01  2.03478779e-01  2.48309109e-01  2.85460467e-01
  3.11982376e-01  3.12594560e-01  4.29084966e-01  4.38339342e-01
  4.46279863e-01  4.81398888e-01  4.81704517e-01  4.82461158e-01
  5.03107206e-01  5.26725286e-01  5.45590883e-01  5.68894612e-01
  5.75717406e-01  5.75926719e-01  5.87157315e-01  5.90892895e-01
  5.93925448e-01  6.01320382e-01  6.21340255e-01  6.44578862e-01
  6.77992707e-01  6.85456619e-01  7.33850887e-01  8.12410806e-01
  8.22366072e-01  8.37118710e-01  8.46973198e-01  8.52237157e-01
  8.79258647e-01  8.82477375e-01  9.05356924e-01  9.12451662e-01
  9.21067935e-01  9.31010896e-01  9.32149572e-01  9.69757669e-01
  9.75693283e-01  9.79523849e-01  1.02978041e+00  1.06300110e+00
  1.07566229e+00  1.11618599e+00  1.15717712e+00  1.20146577e+00
  1.21317316e+00  1.23925992e+00  1.36613498e+00  1.39031816e+00
  1.45153294e+00  1.45736909e+00  1.47197342e+00  1.49786975e+00
  1.51041503e+00  1.51207498e+00  1.69556981e+00  1.70830563e+00
  1.70843705e+00  1.76212549e+00  1.81808145e+00  1.83297228e+00
  1.93018371e+00  1.95715322e+00  2.04984825e+00  2.11952020e+00
  2.11996534e+00  2.16266249e+00  2.16719557e+00  2.20715923e+00
  2.21290608e+00  2.24978448e+00  2.26314501e+00  2.28143849e+00
  2.31828123e+00  2.36869627e+00  2.53812324e+00  2.54877711e+00
  2.64943478e+00  2.67786059e+00  2.69098053e+00  2.71227482e+00
  2.77656550e+00  2.78339402e+00  3.03829584e+00  3.39303300e+00]
nelec by numeric integration = 68.00002467752253
    CPU time for vxc      5.93 sec, wall time      0.21 sec
E1 = -1766.4108797419742  Ecoul = 714.3771048405179  Exc = -70.51901229768548
cycle= 4 E= -748.128153305593  delta_E= -0.00115  |g|= 0.0355  |ddm|= 0.093
    CPU time for cycle= 4      6.47 sec, wall time      0.23 sec
  HOMO = -0.260287661316572  LUMO = -0.0303203339275739
  mo_energy =
[-1.01488735e+02 -1.43361534e+01 -1.02286409e+01 -1.02286302e+01
 -1.02105502e+01 -1.02090792e+01 -1.02008322e+01 -1.02008097e+01
 -9.42080421e+00 -7.18375768e+00 -7.17425999e+00 -7.17424964e+00
 -9.56953252e-01 -8.18863831e-01 -8.11286556e-01 -7.72093201e-01
 -6.55175725e-01 -6.43539238e-01 -6.34606961e-01 -5.38605405e-01
 -4.89350914e-01 -4.83586046e-01 -4.41432866e-01 -4.25675009e-01
 -4.23018212e-01 -4.14537923e-01 -4.07275484e-01 -3.81351788e-01
 -3.77740708e-01 -2.97221266e-01 -2.72281160e-01 -2.72068619e-01
 -2.71123660e-01 -2.60287661e-01 -3.03203339e-02 -2.11580186e-02
  5.39447960e-02  9.12801214e-02  1.20260963e-01  1.27097064e-01
  1.37995834e-01  1.48614415e-01  1.56479262e-01  1.70947572e-01
  1.76254646e-01  2.03088843e-01  2.49375062e-01  2.87500203e-01
  3.12965788e-01  3.13344184e-01  4.29507808e-01  4.39404998e-01
  4.47035513e-01  4.81680930e-01  4.81969209e-01  4.82960961e-01
  5.05028083e-01  5.27861168e-01  5.45386667e-01  5.68773930e-01
  5.77245156e-01  5.77795865e-01  5.89839331e-01  5.92567890e-01
  5.95263656e-01  6.03564835e-01  6.20549323e-01  6.46184772e-01
  6.80393905e-01  6.85605544e-01  7.32926464e-01  8.13136916e-01
  8.25151107e-01  8.38146905e-01  8.48867903e-01  8.49836568e-01
  8.79550839e-01  8.82438021e-01  9.05529334e-01  9.14419635e-01
  9.21934038e-01  9.31340935e-01  9.33511259e-01  9.71008304e-01
  9.75622548e-01  9.79595623e-01  1.02895220e+00  1.06331310e+00
  1.07648666e+00  1.11692713e+00  1.15916642e+00  1.20229601e+00
  1.21250455e+00  1.24118253e+00  1.36839262e+00  1.39051768e+00
  1.45190133e+00  1.46025379e+00  1.47510660e+00  1.49549261e+00
  1.51106849e+00  1.51174900e+00  1.69589992e+00  1.70730116e+00
  1.70751913e+00  1.76213867e+00  1.82082532e+00  1.83436723e+00
  1.93265143e+00  1.95928396e+00  2.05274930e+00  2.12201281e+00
  2.12211706e+00  2.16556005e+00  2.16829243e+00  2.20781401e+00
  2.21245609e+00  2.24864642e+00  2.26202900e+00  2.28361886e+00
  2.32029446e+00  2.36861133e+00  2.54041004e+00  2.55018976e+00
  2.65127337e+00  2.67953924e+00  2.69145419e+00  2.71401805e+00
  2.77873268e+00  2.78460625e+00  3.03814764e+00  3.39434598e+00]
nelec by numeric integration = 68.00002442224175
    CPU time for vxc      5.98 sec, wall time      0.21 sec
E1 = -1766.353011985089  Ecoul = 714.315255067781  Exc = -70.51530154740486
cycle= 5 E= -748.128424571164  delta_E= -0.000271  |g|= 0.0106  |ddm|= 0.0427
    CPU time for cycle= 5      6.50 sec, wall time      0.23 sec
  HOMO = -0.258816448075349  LUMO = -0.0298818801245142
  mo_energy =
[-1.01486082e+02 -1.43334815e+01 -1.02254019e+01 -1.02253404e+01
 -1.02121981e+01 -1.02066622e+01 -1.02020589e+01 -1.02020040e+01
 -9.41876793e+00 -7.18164878e+00 -7.17216784e+00 -7.17215741e+00
 -9.55251123e-01 -8.17967208e-01 -8.11602355e-01 -7.71295443e-01
 -6.54106549e-01 -6.42896795e-01 -6.34274490e-01 -5.38344308e-01
 -4.88752815e-01 -4.83476662e-01 -4.41036977e-01 -4.24742669e-01
 -4.22138599e-01 -4.14521602e-01 -4.06347814e-01 -3.80466810e-01
 -3.77520788e-01 -2.97146218e-01 -2.71489079e-01 -2.71351212e-01
 -2.70504235e-01 -2.58816448e-01 -2.98818801e-02 -2.06323208e-02
  5.48884454e-02  9.12992987e-02  1.20707181e-01  1.27590182e-01
  1.38473094e-01  1.48811186e-01  1.56585710e-01  1.71617024e-01
  1.76264342e-01  2.03676592e-01  2.49777562e-01  2.87411817e-01
  3.13403417e-01  3.13895530e-01  4.30172116e-01  4.39872627e-01
  4.47467095e-01  4.82253591e-01  4.82544763e-01  4.83542594e-01
  5.05433831e-01  5.28152907e-01  5.45984215e-01  5.69526383e-01
  5.77648932e-01  5.78232341e-01  5.89725222e-01  5.92852727e-01
  5.95365547e-01  6.03576694e-01  6.21676007e-01  6.46613299e-01
  6.80063676e-01  6.86704082e-01  7.34144023e-01  8.13987284e-01
  8.24490451e-01  8.38630410e-01  8.48797510e-01  8.51102466e-01
  8.80435941e-01  8.83416897e-01  9.06108743e-01  9.14399750e-01
  9.22600306e-01  9.32272317e-01  9.33827854e-01  9.71562019e-01
  9.76616812e-01  9.80393461e-01  1.02995411e+00  1.06392497e+00
  1.07693258e+00  1.11740571e+00  1.15898810e+00  1.20265277e+00
  1.21338768e+00  1.24167887e+00  1.36875400e+00  1.39087439e+00
  1.45245202e+00  1.46008712e+00  1.47513053e+00  1.49658966e+00
  1.51226088e+00  1.51293648e+00  1.69662903e+00  1.70849308e+00
  1.70870015e+00  1.76320906e+00  1.82097499e+00  1.83463656e+00
  1.93243396e+00  1.95978067e+00  2.05301822e+00  2.12238661e+00
  2.12259078e+00  2.16530097e+00  2.16939020e+00  2.20873093e+00
  2.21363362e+00  2.24973293e+00  2.26312870e+00  2.28426452e+00
  2.32032378e+00  2.36981224e+00  2.54090017e+00  2.55062394e+00
  2.65180222e+00  2.67997178e+00  2.69240696e+00  2.71473358e+00
  2.77882650e+00  2.78534779e+00  3.03933466e+00  3.39503334e+00]
nelec by numeric integration = 68.000024453144
    CPU time for vxc      6.29 sec, wall time      0.22 sec
E1 = -1766.2891196126416  Ecoul = 714.2473381235213  Exc = -70.51130412791505
cycle= 6 E= -748.128451723486  delta_E= -2.72e-05  |g|= 0.00456  |ddm|= 0.0156
    CPU time for cycle= 6      7.29 sec, wall time      0.26 sec
  HOMO = -0.25911656731567  LUMO = -0.0299316594437412
  mo_energy =
[-1.01486105e+02 -1.43340660e+01 -1.02265097e+01 -1.02264351e+01
 -1.02113875e+01 -1.02067745e+01 -1.02017632e+01 -1.02017148e+01
 -9.41883134e+00 -7.18170468e+00 -7.17222740e+00 -7.17221694e+00
 -9.55842578e-01 -8.18119608e-01 -8.11488933e-01 -7.71559358e-01
 -6.54164919e-01 -6.43036285e-01 -6.34320441e-01 -5.38388144e-01
 -4.88916226e-01 -4.83462047e-01 -4.41198791e-01 -4.24875496e-01
 -4.22248786e-01 -4.14454770e-01 -4.06627166e-01 -3.80560382e-01
 -3.77558142e-01 -2.97122061e-01 -2.71596057e-01 -2.71497592e-01
 -2.70673682e-01 -2.59116567e-01 -2.99316594e-02 -2.07970573e-02
  5.47770808e-02  9.13591241e-02  1.20665431e-01  1.27506088e-01
  1.38386483e-01  1.48811357e-01  1.56629312e-01  1.71508079e-01
  1.76314555e-01  2.03575145e-01  2.49668225e-01  2.87473354e-01
  3.13334265e-01  3.13757395e-01  4.30144008e-01  4.39752943e-01
  4.47383449e-01  4.82154091e-01  4.82445048e-01  4.83363086e-01
  5.05310758e-01  5.28110352e-01  5.45910125e-01  5.69408781e-01
  5.77546781e-01  5.78089035e-01  5.89754599e-01  5.92816821e-01
  5.95368808e-01  6.03601190e-01  6.21390076e-01  6.46483694e-01
  6.80206827e-01  6.86458543e-01  7.33900563e-01  8.13769304e-01
  8.24766226e-01  8.38522544e-01  8.48833906e-01  8.50858684e-01
  8.80321033e-01  8.83276073e-01  9.06107497e-01  9.14474691e-01
  9.22521075e-01  9.32151136e-01  9.33823608e-01  9.71486364e-01
  9.76495039e-01  9.80310717e-01  1.02973174e+00  1.06383844e+00
  1.07685614e+00  1.11728952e+00  1.15906423e+00  1.20257765e+00
  1.21325367e+00  1.24153627e+00  1.36861789e+00  1.39082181e+00
  1.45232750e+00  1.46014024e+00  1.47513449e+00  1.49643715e+00
  1.51189150e+00  1.51256935e+00  1.69643325e+00  1.70836616e+00
  1.70856903e+00  1.76290392e+00  1.82093223e+00  1.83459367e+00
  1.93251310e+00  1.95959111e+00  2.05292155e+00  2.12230936e+00
  2.12237430e+00  2.16539868e+00  2.16904646e+00  2.20851973e+00
  2.21346344e+00  2.24961616e+00  2.26300074e+00  2.28405563e+00
  2.32039239e+00  2.36945260e+00  2.54072692e+00  2.55051135e+00
  2.65164863e+00  2.67986106e+00  2.69218440e+00  2.71454197e+00
  2.77885401e+00  2.78515969e+00  3.03904554e+00  3.39489287e+00]
nelec by numeric integration = 68.00002444283353
    CPU time for vxc      6.51 sec, wall time      0.23 sec
E1 = -1766.3033162880772  Ecoul = 714.2620332635943  Exc = -70.51180834791087
cycle= 7 E= -748.128457478845  delta_E= -5.76e-06  |g|= 0.000497  |ddm|= 0.00464
    CPU time for cycle= 7      7.37 sec, wall time      0.26 sec
  HOMO = -0.259091407030167  LUMO = -0.0299232403263327
  mo_energy =
[-1.01486346e+02 -1.43340378e+01 -1.02264390e+01 -1.02263834e+01
 -1.02115222e+01 -1.02069783e+01 -1.02016520e+01 -1.02016176e+01
 -9.41901735e+00 -7.18189870e+00 -7.17241763e+00 -7.17240718e+00
 -9.55812873e-01 -8.18202587e-01 -8.11490961e-01 -7.71515491e-01
 -6.54228808e-01 -6.43014253e-01 -6.34301333e-01 -5.38376567e-01
 -4.88891345e-01 -4.83437090e-01 -4.41165235e-01 -4.24918386e-01
 -4.22296543e-01 -4.14469671e-01 -4.06608140e-01 -3.80636306e-01
 -3.77543338e-01 -2.97121363e-01 -2.71669419e-01 -2.71527310e-01
 -2.70676389e-01 -2.59091407e-01 -2.99232403e-02 -2.07641360e-02
  5.47133701e-02  9.13489038e-02  1.20659364e-01  1.27513647e-01
  1.38408550e-01  1.48812655e-01  1.56629719e-01  1.71485855e-01
  1.76319883e-01  2.03572183e-01  2.49677678e-01  2.87481540e-01
  3.13353862e-01  3.13779803e-01  4.30078141e-01  4.39767091e-01
  4.47394670e-01  4.82102129e-01  4.82392549e-01  4.83329360e-01
  5.05328909e-01  5.28119790e-01  5.45872521e-01  5.69385861e-01
  5.77569885e-01  5.78122031e-01  5.89764208e-01  5.92808108e-01
  5.95367344e-01  6.03609296e-01  6.21396667e-01  6.46513055e-01
  6.80211239e-01  6.86478034e-01  7.33900917e-01  8.13796072e-01
  8.24748288e-01  8.38545440e-01  8.48861100e-01  8.50862324e-01
  8.80259133e-01  8.83212007e-01  9.06071793e-01  9.14469962e-01
  9.22479030e-01  9.32078203e-01  9.33800113e-01  9.71469900e-01
  9.76430031e-01  9.80260456e-01  1.02975328e+00  1.06381398e+00
  1.07685565e+00  1.11729335e+00  1.15907192e+00  1.20259470e+00
  1.21321106e+00  1.24156014e+00  1.36864187e+00  1.39082949e+00
  1.45234451e+00  1.46015674e+00  1.47514908e+00  1.49643579e+00
  1.51192431e+00  1.51259850e+00  1.69645696e+00  1.70828532e+00
  1.70849226e+00  1.76292717e+00  1.82094944e+00  1.83460829e+00
  1.93251805e+00  1.95962791e+00  2.05293874e+00  2.12233460e+00
  2.12241001e+00  2.16540420e+00  2.16907995e+00  2.20852378e+00
  2.21340362e+00  2.24955067e+00  2.26293790e+00  2.28409508e+00
  2.32039478e+00  2.36948148e+00  2.54076048e+00  2.55052423e+00
  2.65167842e+00  2.67987903e+00  2.69221290e+00  2.71457823e+00
  2.77886238e+00  2.78518680e+00  3.03907584e+00  3.39492045e+00]
nelec by numeric integration = 68.00002444644524
    CPU time for vxc      5.93 sec, wall time      0.21 sec
E1 = -1766.3048897044646  Ecoul = 714.2637497861839  Exc = -70.51195151518611
cycle= 8 E= -748.128457539918  delta_E= -6.11e-08  |g|= 0.00018  |ddm|= 0.000638
    CPU time for cycle= 8      6.44 sec, wall time      0.23 sec
  HOMO = -0.259091311294173  LUMO = -0.0299161645284327
  mo_energy =
[-1.01486352e+02 -1.43340367e+01 -1.02264301e+01 -1.02263631e+01
 -1.02114677e+01 -1.02069523e+01 -1.02016865e+01 -1.02016415e+01
 -9.41901655e+00 -7.18189990e+00 -7.17241696e+00 -7.17240651e+00
 -9.55809289e-01 -8.18192875e-01 -8.11484257e-01 -7.71516971e-01
 -6.54221389e-01 -6.43014133e-01 -6.34297155e-01 -5.38371220e-01
 -4.88888969e-01 -4.83442352e-01 -4.41168175e-01 -4.24909446e-01
 -4.22287419e-01 -4.14458717e-01 -4.06604610e-01 -3.80630962e-01
 -3.77542163e-01 -2.97114390e-01 -2.71664980e-01 -2.71525189e-01
 -2.70676344e-01 -2.59091311e-01 -2.99161645e-02 -2.07662243e-02
  5.47198130e-02  9.13518359e-02  1.20663100e-01  1.27514585e-01
  1.38410211e-01  1.48812453e-01  1.56633224e-01  1.71491516e-01
  1.76319749e-01  2.03575872e-01  2.49680676e-01  2.87485152e-01
  3.13353816e-01  3.13780335e-01  4.30074653e-01  4.39768161e-01
  4.47396644e-01  4.82105413e-01  4.82395871e-01  4.83334580e-01
  5.05331885e-01  5.28122335e-01  5.45879130e-01  5.69391085e-01
  5.77568386e-01  5.78119599e-01  5.89766903e-01  5.92817776e-01
  5.95372952e-01  6.03612461e-01  6.21400625e-01  6.46511269e-01
  6.80213377e-01  6.86480461e-01  7.33906362e-01  8.13796937e-01
  8.24759233e-01  8.38544682e-01  8.48854537e-01  8.50865779e-01
  8.80265466e-01  8.83218140e-01  9.06076711e-01  9.14473009e-01
  9.22484715e-01  9.32084423e-01  9.33803997e-01  9.71474057e-01
  9.76433688e-01  9.80264818e-01  1.02975387e+00  1.06381821e+00
  1.07685713e+00  1.11729723e+00  1.15907279e+00  1.20259406e+00
  1.21321493e+00  1.24156232e+00  1.36864432e+00  1.39083249e+00
  1.45234533e+00  1.46015677e+00  1.47515467e+00  1.49643969e+00
  1.51192640e+00  1.51260194e+00  1.69645747e+00  1.70829917e+00
  1.70850562e+00  1.76293043e+00  1.82095297e+00  1.83461238e+00
  1.93252178e+00  1.95962570e+00  2.05294458e+00  2.12233569e+00
  2.12240930e+00  2.16540873e+00  2.16908254e+00  2.20853036e+00
  2.21341499e+00  2.24956286e+00  2.26295000e+00  2.28409331e+00
  2.32040131e+00  2.36948430e+00  2.54076040e+00  2.55052927e+00
  2.65167860e+00  2.67988320e+00  2.69221434e+00  2.71457750e+00
  2.77886849e+00  2.78518953e+00  3.03907867e+00  3.39492257e+00]
nelec by numeric integration = 68.00002444605073
    CPU time for vxc      5.94 sec, wall time      0.21 sec
E1 = -1766.3045199397375  Ecoul = 714.2633600576745  Exc = -70.51193155857811
cycle= 9 E= -748.128457547092  delta_E= -7.17e-09  |g|= 4.71e-05  |ddm|= 0.000163
    CPU time for cycle= 9      6.47 sec, wall time      0.23 sec
  HOMO = -0.259096769082657  LUMO = -0.0299212966325348
  mo_energy =
[-1.01486323e+02 -1.43340444e+01 -1.02264330e+01 -1.02263737e+01
 -1.02114843e+01 -1.02069410e+01 -1.02016851e+01 -1.02016478e+01
 -9.41899205e+00 -7.18187507e+00 -7.17239197e+00 -7.17238153e+00
 -9.55814663e-01 -8.18183697e-01 -8.11489430e-01 -7.71520727e-01
 -6.54216830e-01 -6.43018554e-01 -6.34301177e-01 -5.38375150e-01
 -4.88894073e-01 -4.83444606e-01 -4.41170828e-01 -4.24908360e-01
 -4.22285899e-01 -4.14462714e-01 -4.06608449e-01 -3.80623593e-01
 -3.77546126e-01 -2.97119500e-01 -2.71654528e-01 -2.71519775e-01
 -2.70674832e-01 -2.59096769e-01 -2.99212966e-02 -2.07698033e-02
  5.47254900e-02  9.13508758e-02  1.20661862e-01  1.27513436e-01
  1.38406011e-01  1.48811311e-01  1.56630983e-01  1.71491453e-01
  1.76318730e-01  2.03574392e-01  2.49677367e-01  2.87481671e-01
  3.13350789e-01  3.13776429e-01  4.30084318e-01  4.39766125e-01
  4.47394054e-01  4.82112796e-01  4.82403306e-01  4.83338532e-01
  5.05328368e-01  5.28118745e-01  5.45880944e-01  5.69391967e-01
  5.77565569e-01  5.78116983e-01  5.89763095e-01  5.92814058e-01
  5.95369793e-01  6.03608955e-01  6.21397348e-01  6.46508472e-01
  6.80209768e-01  6.86477693e-01  7.33903892e-01  8.13794315e-01
  8.24754586e-01  8.38542158e-01  8.48852547e-01  8.50862850e-01
  8.80272489e-01  8.83225723e-01  9.06078113e-01  9.14471297e-01
  9.22489288e-01  9.32093810e-01  9.33805280e-01  9.71475104e-01
  9.76441187e-01  9.80269458e-01  1.02975042e+00  1.06381923e+00
  1.07685625e+00  1.11729452e+00  1.15907002e+00  1.20259119e+00
  1.21321879e+00  1.24155731e+00  1.36863986e+00  1.39082878e+00
  1.45234227e+00  1.46015191e+00  1.47514961e+00  1.49643647e+00
  1.51192210e+00  1.51259678e+00  1.69645302e+00  1.70830293e+00
  1.70850908e+00  1.76292653e+00  1.82094820e+00  1.83460744e+00
  1.93251730e+00  1.95962235e+00  2.05293960e+00  2.12233116e+00
  2.12240533e+00  2.16540323e+00  2.16907840e+00  2.20852654e+00
  2.21341769e+00  2.24956495e+00  2.26295184e+00  2.28408963e+00
  2.32039529e+00  2.36947944e+00  2.54075650e+00  2.55052399e+00
  2.65167384e+00  2.67987831e+00  2.69220929e+00  2.71457304e+00
  2.77886266e+00  2.78518444e+00  3.03907337e+00  3.39491751e+00]
nelec by numeric integration = 68.00002444568158
    CPU time for vxc      5.95 sec, wall time      0.21 sec
E1 = -1766.3043937240482  Ecoul = 714.2632228730423  Exc = -70.5119205902457
cycle= 10 E= -748.128457547703  delta_E= -6.1e-10  |g|= 1.6e-05  |ddm|= 7.98e-05
    CPU time for cycle= 10      6.46 sec, wall time      0.23 sec
  HOMO = -0.259096796064309  LUMO = -0.0299198705940207
  mo_energy =
[-1.01486336e+02 -1.43340466e+01 -1.02264328e+01 -1.02263633e+01
 -1.02114782e+01 -1.02069429e+01 -1.02016908e+01 -1.02016433e+01
 -9.41900303e+00 -7.18188625e+00 -7.17240317e+00 -7.17239273e+00
 -9.55813227e-01 -8.18188028e-01 -8.11488174e-01 -7.71519181e-01
 -6.54218263e-01 -6.43017259e-01 -6.34299653e-01 -5.38373639e-01
 -4.88892472e-01 -4.83443862e-01 -4.41169675e-01 -4.24908889e-01
 -4.22286458e-01 -4.14461699e-01 -4.06607269e-01 -3.80626352e-01
 -3.77544681e-01 -2.97118272e-01 -2.71658739e-01 -2.71521939e-01
 -2.70675414e-01 -2.59096796e-01 -2.99198706e-02 -2.07684480e-02
  5.47234213e-02  9.13510622e-02  1.20662461e-01  1.27513843e-01
  1.38407261e-01  1.48811466e-01  1.56631768e-01  1.71491198e-01
  1.76318399e-01  2.03575475e-01  2.49678356e-01  2.87482734e-01
  3.13351342e-01  3.13777861e-01  4.30081663e-01  4.39766423e-01
  4.47395032e-01  4.82109802e-01  4.82400301e-01  4.83336144e-01
  5.05329863e-01  5.28119629e-01  5.45880071e-01  5.69391495e-01
  5.77566707e-01  5.78118021e-01  5.89764268e-01  5.92815664e-01
  5.95370473e-01  6.03610255e-01  6.21397994e-01  6.46509569e-01
  6.80210690e-01  6.86479028e-01  7.33904772e-01  8.13795962e-01
  8.24756024e-01  8.38543047e-01  8.48852934e-01  8.50862883e-01
  8.80269544e-01  8.83222410e-01  9.06077560e-01  9.14471443e-01
  9.22487524e-01  9.32089906e-01  9.33804725e-01  9.71474690e-01
  9.76438018e-01  9.80267687e-01  1.02975120e+00  1.06381864e+00
  1.07685653e+00  1.11729547e+00  1.15907086e+00  1.20259182e+00
  1.21321661e+00  1.24155891e+00  1.36864145e+00  1.39082935e+00
  1.45234340e+00  1.46015308e+00  1.47515151e+00  1.49643669e+00
  1.51192329e+00  1.51259884e+00  1.69645396e+00  1.70830170e+00
  1.70850794e+00  1.76292785e+00  1.82094976e+00  1.83460860e+00
  1.93251845e+00  1.95962371e+00  2.05294159e+00  2.12233266e+00
  2.12240681e+00  2.16540460e+00  2.16908015e+00  2.20852780e+00
  2.21341656e+00  2.24956438e+00  2.26295143e+00  2.28409119e+00
  2.32039682e+00  2.36948094e+00  2.54075802e+00  2.55052541e+00
  2.65167523e+00  2.67987986e+00  2.69221079e+00  2.71457461e+00
  2.77886416e+00  2.78518606e+00  3.03907487e+00  3.39491909e+00]
nelec by numeric integration = 68.00002444586548
    CPU time for vxc      5.89 sec, wall time      0.21 sec
E1 = -1766.3044780057003  Ecoul = 714.2633141280714  Exc = -70.51192756354733
Extra cycle  E= -748.128457547627  delta_E= 7.55e-11  |g|= 2.29e-05  |ddm|= 3.96e-05
    CPU time for scf_cycle     89.65 sec, wall time      3.31 sec
    CPU time for SCF     89.66 sec, wall time      3.31 sec
converged SCF energy = -748.128457547627
Converting <class 'pyscf.dft.rks.RKS'> to RHF


******** <class 'pyscf.tdscf.rks.TDA'> for <class 'pyscf.dft.rks.RKS'> ********
nstates = 10 singlet
wfnsym = None
conv_tol = 1e-09
eigh lindep = 1e-12
eigh level_shift = 0
eigh max_space = 50
eigh max_cycle = 100
chkfile = /scratch/global/yangjunjie/tmp_hlq0uri
max_memory 127949 MB (current use 607 MB)


davidson 0 10  |r|= 0.249  e= [0.18516627 0.18821992 0.21560971 0.22250047 0.22260974 0.23195765
 0.23234933 0.2794339  0.36216637 0.37309589]  max|de|= 0.373  lindep=    1
Old state -> New state
    4     ->     3 
    3     ->     4 
davidson 1 20  |r|= 0.0474  e= [0.1823729  0.18728255 0.21131403 0.2223411  0.22235669 0.23189419
 0.23207554 0.24903941 0.30169551 0.304148  ]  max|de|= -0.0689  lindep= 0.874
davidson 2 30  |r|= 0.0283  e= [0.18224624 0.18725444 0.21114545 0.22231115 0.22235596 0.23189276
 0.23205179 0.24878085 0.29957034 0.29987229]  max|de|= -0.00428  lindep=  0.8
Old state -> New state
    9     ->     8 
    8     ->     9 
davidson 3 40  |r|= 0.0504  e= [0.182244   0.18725388 0.21114006 0.22231029 0.22235591 0.23189263
 0.23205133 0.24874295 0.29279146 0.29924981]  max|de|= -0.00708  lindep= 0.81
davidson 4 50  |r|= 0.031  e= [0.18224394 0.18725387 0.21113992 0.22231024 0.2223559  0.23189261
 0.23205129 0.2487383  0.28706363 0.29915417]  max|de|= -0.00573  lindep= 0.755
Old state -> New state
    8     ->     9 
root 1 converged  |r|= 1.11e-06  e= 0.18725386951894177  max|de|= -1.8e-10
root 4 converged  |r|= 2.84e-06  e= 0.22235589898115452  max|de|= -6.2e-10
root 5 converged  |r|= 8.34e-06  e= 0.2318926083827963  max|de|= -9.53e-10
davidson 5 60  |r|= 0.0574  e= [0.18224394 0.18725387 0.21113991 0.22231024 0.2223559  0.23189261
 0.23205129 0.24873788 0.28394023 0.2860053 ]  max|de|= -0.00312  lindep= 0.84
root 0 converged  |r|= 3.62e-07  e= 0.18224393746162207  max|de|= -1.98e-11
root 2 converged  |r|= 8.67e-07  e= 0.21113991357293022  max|de|= -3.34e-11
root 3 converged  |r|= 1.61e-06  e= 0.22231023737181946  max|de|= -9.08e-11
root 6 converged  |r|= 2.83e-06  e= 0.23205128913780224  max|de|= -2.59e-10
davidson 6 67  |r|= 0.0163  e= [0.18224394 0.18725387 0.21113991 0.22231024 0.2223559  0.23189261
 0.23205129 0.24873785 0.27948589 0.28448487]  max|de|= -0.00445  lindep= 0.857
davidson 7 70  |r|= 0.00569  e= [0.18224394 0.18725387 0.21113991 0.22231024 0.2223559  0.23189261
 0.23205129 0.24873785 0.27910308 0.28443404]  max|de|= -0.000383  lindep= 0.795
root 7 converged  |r|= 6.67e-06  e= 0.24873785035915452  max|de|= 2.22e-16
davidson 8 10  |r|= 0.00569  e= [0.18224394 0.18725387 0.21113991 0.22231024 0.2223559  0.23189261
 0.23205129 0.24873785 0.27910308 0.28443404]  max|de|= -6.66e-16  lindep= 0.999
davidson 9 12  |r|= 0.00287  e= [0.18224394 0.18725387 0.21113991 0.22231024 0.2223559  0.23189261
 0.23205129 0.24873785 0.27906215 0.28442944]  max|de|= -4.09e-05  lindep= 0.703
davidson 10 14  |r|= 0.000727  e= [0.18224394 0.18725387 0.21113991 0.22231024 0.2223559  0.23189261
 0.23205129 0.24873785 0.27905277 0.28442848]  max|de|= -9.38e-06  lindep= 0.88
davidson 11 16  |r|= 0.000253  e= [0.18224394 0.18725387 0.21113991 0.22231024 0.2223559  0.23189261
 0.23205129 0.24873785 0.27905199 0.28442837]  max|de|= -7.83e-07  lindep= 0.902
davidson 12 18  |r|= 0.00012  e= [0.18224394 0.18725387 0.21113991 0.22231024 0.2223559  0.23189261
 0.23205129 0.24873785 0.27905191 0.28442836]  max|de|= -7.96e-08  lindep= 0.934
davidson 13 20  |r|= 5.66e-05  e= [0.18224394 0.18725387 0.21113991 0.22231024 0.2223559  0.23189261
 0.23205129 0.24873785 0.27905189 0.28442835]  max|de|= -1.9e-08  lindep= 0.902
davidson 14 22  |r|= 3.07e-05  e= [0.18224394 0.18725387 0.21113991 0.22231024 0.2223559  0.23189261
 0.23205129 0.24873785 0.27905188 0.28442835]  max|de|= -4.04e-09  lindep= 0.864
root 9 converged  |r|= 1.06e-05  e= 0.28442835198330707  max|de|= -4.49e-10
davidson 15 24  |r|= 1.47e-05  e= [0.18224394 0.18725387 0.21113991 0.22231024 0.2223559  0.23189261
 0.23205129 0.24873785 0.27905188 0.28442835]  max|de|= -1.25e-09  lindep= 0.723
root 8 converged  |r|= 8.44e-06  e= 0.2790518820122402  max|de|= -3.92e-10
converged 16 25  |r|= 8.44e-06  e= [0.18224394 0.18725387 0.21113991 0.22231024 0.2223559  0.23189261
 0.23205129 0.24873785 0.27905188 0.28442835]  max|de|= -3.92e-10
    CPU time for TDA    265.30 sec, wall time      9.66 sec
Excited State energies (eV)
[4.95911013 5.09543733 5.74540969 6.04936969 6.0506122  6.31011928
 6.3144372  6.76850166 7.59338848 7.73968968]
Converting <class 'pyscf.dft.rks.RKS'> to RHF


******** <class 'pyscf.tdscf.rks.TDDFT'> for <class 'pyscf.dft.rks.RKS'> ********
nstates = 10 singlet
wfnsym = None
conv_tol = 1e-09
eigh lindep = 1e-12
eigh level_shift = 0
eigh max_space = 50
eigh max_cycle = 100
chkfile = /scratch/global/yangjunjie/tmp_hlq0uri
max_memory 127949 MB (current use 668 MB)


davidson 0 10  |r|= 0.392  e= [0.18516627 0.18821992 0.21560971 0.22250047 0.22260974 0.23195765
 0.23234933 0.2794339  0.36216637 0.37309589]  max|de|= 0.373  lindep=    1
Old state -> New state
    8     ->     0 
    9     ->     1 
    0     ->     2 
    1     ->     3 
    7     ->     4 
    2     ->     5 
    3     ->     6 
    4     ->     7 
    0     ->     8 
    5     ->     9 
davidson 1 20  |r|= 0.835  e= [0.07769409 0.09201833 0.17832007 0.18685912 0.20839133 0.20927222
 0.22234658 0.22234748 0.23027721 0.23188782]  max|de|= -0.284  lindep= 0.125
Old state -> New state
    2     ->     0 
    3     ->     1 
    5     ->     2 
    1     ->     3 
    2     ->     4 
    2     ->     5 
    3     ->     6 
    5     ->     7 
    7     ->     8 
    6     ->     9 
davidson 2 30  |r|= 1.62  e= [0.01990875 0.05717255 0.06294704 0.11505251 0.14919694 0.18060012
 0.18688814 0.20868765 0.22215754 0.22235234]  max|de|= -0.158  lindep= 0.117
Old state -> New state
    2     ->     1 
    5     ->     3 
    6     ->     4 
    3     ->     5 
    4     ->     6 
davidson 3 40  |r|= 1.63  e= [0.01442151 0.04950384 0.10499072 0.18055802 0.18705233 0.1891522
 0.20538433 0.2090475  0.222048   0.2223529 ]  max|de|= 0.0741  lindep= 0.0154
Old state -> New state
    1     ->     0 
    0     ->     2 
    7     ->     5 
    8     ->     6 
    9     ->     7 
    0     ->     8 
    5     ->     9 
davidson 4 50  |r|= 1.33  e= [0.00440174 0.09055463 0.09186052 0.1805147  0.18702807 0.20878909
 0.22218886 0.22235426 0.23189069 0.23192304]  max|de|= 0.217  lindep= 0.149
Old state -> New state
    2     ->     1 
    5     ->     2 
davidson 5 60  |r|= 1.29  e= [0.00681595 0.11140013 0.14051467 0.18054008 0.18702694 0.20879358
 0.22219242 0.22235405 0.23189046 0.2319223 ]  max|de|= -0.0683  lindep= 0.0335
Old state -> New state
    1     ->     0 
    3     ->     1 
    4     ->     2 
    5     ->     3 
    6     ->     4 
    7     ->     5 
    8     ->     6 
    9     ->     7 
    2     ->     8 
    0     ->     9 
davidson 6 70  |r|= 1.12  e= [0.00714981 0.18051292 0.18702626 0.2088098  0.22219287 0.2223541
 0.23189064 0.23191891 0.238738   0.27788261]  max|de|= 0.271  lindep= 0.0892
Old state -> New state
    9     ->     0 
    0     ->     1 
    8     ->     2 
    1     ->     3 
    2     ->     4 
    3     ->     5 
    4     ->     6 
    5     ->     7 
    6     ->     8 
    7     ->     9 
davidson 7 80  |r|= 1.19  e= [0.01774879 0.01831865 0.12346379 0.18051388 0.18702612 0.20881866
 0.22219337 0.22235414 0.23189068 0.23191729]  max|de|= -0.26  lindep= 0.0485
davidson 8 10  |r|= 1.19  e= [0.01774879 0.01831865 0.12346379 0.18051388 0.18702612 0.20881866
 0.22219337 0.22235414 0.23189068 0.23191729]  max|de|= -7.77e-16  lindep= 0.138
Old state -> New state
    1     ->     0 
    5     ->     1 
    1     ->     2 
    5     ->     3 
    3     ->     4 
    4     ->     5 
    5     ->     6 
    1     ->     7 
    6     ->     8 
    7     ->     9 
davidson 9 20  |r|= 1.57  e= [0.00839579 0.06469222 0.08554297 0.17534412 0.1805138  0.187026
 0.20877789 0.21392465 0.22219288 0.22235424]  max|de|= 0.196  lindep= 0.105
Old state -> New state
    1     ->     0 
    0     ->     1 
    1     ->     2 
    4     ->     3 
    1     ->     4 
    4     ->     5 
    5     ->     6 
    6     ->     7 
davidson 10 30  |r|= 1.12  e= [0.00898304 0.00977158 0.02987154 0.1305689  0.14873934 0.18051087
 0.18702621 0.20885964 0.22219394 0.22235413]  max|de|= 0.084  lindep= 0.0727
Old state -> New state
    1     ->     0 
    7     ->     1 
    5     ->     2 
    5     ->     3 
    6     ->     4 
    7     ->     5 
    8     ->     6 
    9     ->     7 
    3     ->     8 
    4     ->     9 
root 7 converged  |r|= 1.12e-05  e= 0.2223541318900345  max|de|= -9.9e-10
davidson 11 40  |r|=  1.1  e= [0.02884252 0.13249998 0.15015921 0.18051664 0.18702621 0.20881125
 0.22219553 0.22235413 0.23189067 0.23190195]  max|de|= 0.101  lindep= 0.0935
Old state -> New state
    1     ->     0 
    0     ->     1 
    3     ->     2 
    4     ->     3 
    5     ->     4 
    6     ->     5 
    7     ->     6 
    9     ->     7 
davidson 12 49  |r|=  1.1  e= [0.02002359 0.0664634  0.18051406 0.1870261  0.20866107 0.22217349
 0.22235414 0.23091364 0.2318928  0.23202583]  max|de|= -0.112  lindep= 0.173
Old state -> New state
    1     ->     0 
    0     ->     1 
    2     ->     3 
    3     ->     4 
    4     ->     5 
    5     ->     6 
    6     ->     7 
davidson 13 59  |r|= 1.16  e= [0.01902817 0.09299727 0.1803121  0.18061524 0.18702572 0.20882317
 0.22219396 0.22235413 0.23189066 0.23191622]  max|de|= 0.073  lindep= 0.0802
Old state -> New state
    4     ->     2 
root 7 converged  |r|= 8.73e-06  e= 0.2223541300923071  max|de|= 4.65e-10
root 8 converged  |r|= 3.11e-05  e= 0.23189065503235307  max|de|= -2.59e-10
davidson 14 69  |r|= 1.15  e= [0.01732795 0.09129089 0.15208419 0.18051358 0.18702608 0.20883051
 0.22219421 0.22235413 0.23189066 0.23191474]  max|de|= -0.0349  lindep= 0.0516
Old state -> New state
    3     ->     1 
    3     ->     2 
    4     ->     3 
    5     ->     4 
    6     ->     5 
    7     ->     6 
    8     ->     7 
    9     ->     8 
    6     ->     9 
davidson 15 77  |r|= 1.13  e= [0.01631828 0.05213351 0.18051346 0.18702608 0.20883027 0.22219486
 0.22235413 0.23189065 0.23191574 0.24520268]  max|de|= -0.128  lindep= 0.0238
root 3 converged  |r|= 2.1e-05  e= 0.1870260814718734  max|de|= 2.22e-16
root 7 converged  |r|= 1.96e-05  e= 0.2318906534095355  max|de|= -5.55e-17
davidson 16 10  |r|= 1.13  e= [0.01631828 0.05213351 0.18051346 0.18702608 0.20883027 0.22219486
 0.22235413 0.23189065 0.23191574 0.24520268]  max|de|= 6.94e-15  lindep= 0.237
Old state -> New state
    4     ->     2 
    5     ->     3 
    2     ->     4 
    2     ->     5 
    3     ->     6 
    4     ->     7 
    5     ->     8 
    6     ->     9 
davidson 17 17  |r|= 1.56  e= [0.01836628 0.07920766 0.10902077 0.15794426 0.17973054 0.18051327
 0.18702602 0.20884812 0.22219375 0.22235413]  max|de|= -0.0998  lindep= 0.0578
Old state -> New state
    2     ->     1 
    5     ->     3 
    6     ->     4 
    7     ->     5 
    8     ->     6 
    9     ->     7 
    4     ->     8 
    3     ->     9 
davidson 18 26  |r|= 1.36  e= [0.02668332 0.09037916 0.14356637 0.18051374 0.18702608 0.20882675
 0.22219382 0.22235413 0.23189065 0.23191727]  max|de|= 0.074  lindep= 0.186
Old state -> New state
    3     ->     1 
    4     ->     2 
    5     ->     3 
    5     ->     4 
    6     ->     5 
    7     ->     6 
    8     ->     7 
    9     ->     8 
    1     ->     9 
davidson 19 36  |r|= 1.31  e= [0.01185171 0.18051212 0.18702602 0.20261933 0.20885295 0.22219239
 0.22235413 0.23189065 0.23191879 0.24417243]  max|de|= 0.154  lindep= 0.117
Old state -> New state
    4     ->     3 
    5     ->     4 
    6     ->     5 
    7     ->     6 
    8     ->     7 
    3     ->     8 
davidson 20 46  |r|= 1.21  e= [0.04613373 0.18051316 0.18702609 0.20883497 0.22219314 0.22235413
 0.23189066 0.23191644 0.25054537 0.28254668]  max|de|= 0.0479  lindep= 0.134
Old state -> New state
    1     ->     2 
    2     ->     3 
    3     ->     4 
    4     ->     5 
    5     ->     6 
    6     ->     7 
    7     ->     8 
    8     ->     9 
davidson 21 56  |r|=  1.1  e= [0.04993382 0.16883037 0.18051298 0.18702613 0.2088332  0.22219355
 0.22235413 0.23189065 0.23191649 0.24917785]  max|de|= -0.0117  lindep= 0.0406
Old state -> New state
    2     ->     1 
    4     ->     5 
    5     ->     6 
    6     ->     7 
    7     ->     8 
    8     ->     9 
davidson 22 66  |r|=  1.3  e= [0.00584518 0.08872601 0.18051249 0.18702612 0.20706462 0.20884981
 0.2221934  0.22235413 0.23189065 0.23191661]  max|de|= -0.0918  lindep= 0.144
Old state -> New state
    2     ->     1 
    5     ->     4 
root 7 converged  |r|= 3.94e-06  e= 0.22235413180349786  max|de|= -4.51e-10
davidson 23 76  |r|= 1.16  e= [0.00507637 0.09451109 0.18051244 0.18702613 0.1992726  0.2088376
 0.22219343 0.22235413 0.23189066 0.23191655]  max|de|= -0.086  lindep= 0.0414
Old state -> New state
    2     ->     0 
    3     ->     1 
    5     ->     2 
    6     ->     3 
    7     ->     4 
    8     ->     5 
    9     ->     6 
    4     ->     7 
    4     ->     8 
    4     ->     9 
root 5 converged  |r|= 5.31e-06  e= 0.23189065567511027  max|de|= 4.24e-10
davidson 24 85  |r|= 0.59  e= [0.18051241 0.18702612 0.20883386 0.22219341 0.22235413 0.23189066
 0.23191661 0.2418953  0.26849574 0.27747149]  max|de|= 0.0782  lindep= 0.251
root 0 converged  |r|= 9.6e-06  e= 0.1805124149945866  max|de|= 2.44e-15
root 1 converged  |r|= 3.7e-06  e= 0.18702612111287523  max|de|= 2.5e-16
root 3 converged  |r|= 2.68e-05  e= 0.2221934098021216  max|de|= 6.08e-15
davidson 25 10  |r|= 0.59  e= [0.18051241 0.18702612 0.20883386 0.22219341 0.22235413 0.23189066
 0.23191661 0.2418953  0.26849574 0.27747149]  max|de|= 3.34e-13  lindep= 0.776
Old state -> New state
    0     ->     1 
    1     ->     2 
    2     ->     3 
    3     ->     4 
    4     ->     5 
    5     ->     6 
    6     ->     7 
    7     ->     8 
davidson 26 15  |r|= 0.812  e= [0.17423746 0.18051288 0.18702614 0.20883422 0.2221935  0.22235413
 0.23189066 0.23191636 0.23843207 0.27634229]  max|de|= -0.00627  lindep= 0.464
Old state -> New state
    9     ->     0 
    8     ->     1 
    1     ->     2 
    2     ->     3 
    3     ->     4 
    4     ->     5 
    5     ->     6 
    6     ->     7 
    7     ->     8 
    8     ->     9 
davidson 27 23  |r|= 1.23  e= [0.10196475 0.1437232  0.18051244 0.18702612 0.2088335  0.22219344
 0.22235413 0.23189066 0.23191654 0.2384452 ]  max|de|= -0.174  lindep= 0.273
Old state -> New state
    1     ->     4 
    4     ->     5 
    4     ->     6 
    5     ->     7 
    6     ->     8 
    7     ->     9 
davidson 28 31  |r|= 1.33  e= [0.04468354 0.10875003 0.18051249 0.18702613 0.19315792 0.20883663
 0.21801169 0.2221934  0.22235413 0.23189066]  max|de|= -0.0573  lindep= 0.241
Old state -> New state
    1     ->     0 
    5     ->     4 
    7     ->     5 
    8     ->     6 
    9     ->     7 
    6     ->     8 
    4     ->     9 
davidson 29 39  |r|= 1.41  e= [0.0319634  0.07338506 0.18051247 0.18702612 0.2088339  0.22219344
 0.22235413 0.23189066 0.23191653 0.23879729]  max|de|= -0.0768  lindep= 0.171
Old state -> New state
    2     ->     1 
    3     ->     2 
    4     ->     3 
    5     ->     4 
    6     ->     5 
    7     ->     6 
    8     ->     7 
    9     ->     8 
    0     ->     9 
root 2 converged  |r|= 3.37e-07  e= 0.18702612505483185  max|de|= 3.91e-10
root 6 converged  |r|= 7.53e-07  e= 0.2318906557279277  max|de|= 5.38e-11
davidson 30 46  |r|= 1.37  e= [0.10919769 0.18051247 0.18702613 0.20883382 0.22219344 0.22235413
 0.23189066 0.23191655 0.2395171  0.25873781]  max|de|= 0.227  lindep= 0.178
Old state -> New state
    0     ->     1 
    1     ->     2 
    2     ->     3 
    3     ->     4 
    4     ->     5 
    5     ->     6 
    6     ->     7 
    7     ->     8 
    8     ->     9 
root 2 converged  |r|= 9.9e-07  e= 0.18051246463445786  max|de|= -7.23e-10
davidson 31 52  |r|= 1.33  e= [0.11700611 0.12133967 0.18051246 0.18702612 0.20883385 0.22219344
 0.22235413 0.23189066 0.23191654 0.23356154]  max|de|= 0.0121  lindep= 0.0731
Old state -> New state
    9     ->     1 
    2     ->     3 
    3     ->     4 
    4     ->     5 
    5     ->     6 
    5     ->     7 
    6     ->     8 
    7     ->     9 
davidson 32 59  |r|=  1.3  e= [0.00180483 0.11742957 0.13138846 0.18051246 0.18702612 0.20883381
 0.22202842 0.22219343 0.22235413 0.23189066]  max|de|= -0.116  lindep= 0.118
Old state -> New state
    3     ->     1 
    4     ->     2 
    5     ->     3 
    7     ->     4 
    8     ->     5 
    9     ->     6 
    1     ->     7 
    1     ->     8 
    1     ->     9 
root 6 converged  |r|= 9.63e-08  e= 0.23189065565224276  max|de|= 1.25e-11
davidson 33 65  |r|= 1.38  e= [0.07626179 0.18051247 0.18702612 0.20883383 0.22219344 0.22235413
 0.23189066 0.23191654 0.23882775 0.27816825]  max|de|= 0.161  lindep= 0.131
Old state -> New state
    3     ->     4 
    4     ->     5 
    5     ->     6 
    6     ->     7 
    7     ->     8 
    8     ->     9 
davidson 34 70  |r|= 1.11  e= [0.0587389  0.18051246 0.18702612 0.20883375 0.21162126 0.22219343
 0.22235413 0.23189066 0.23191655 0.23871241]  max|de|= -0.0175  lindep= 0.104
Old state -> New state
    1     ->     0 
    2     ->     1 
    3     ->     2 
    9     ->     3 
    5     ->     4 
    6     ->     5 
    7     ->     6 
    8     ->     7 
    9     ->     8 
davidson 35 76  |r|= 0.557  e= [0.18051246 0.18702612 0.20883383 0.21542522 0.22219344 0.22235413
 0.23189066 0.23191655 0.23906791 0.25676833]  max|de|= -0.0233  lindep= 0.168
Old state -> New state
    9     ->     0 
    0     ->     1 
    3     ->     2 
    0     ->     3 
    1     ->     4 
    2     ->     5 
    4     ->     6 
    5     ->     7 
    6     ->     8 
    7     ->     9 
root 6 converged  |r|= 5.96e-08  e= 0.22219343969699715  max|de|= 9.01e-11
davidson 36 81  |r|= 1.18  e= [0.04223533 0.14410755 0.16626624 0.18051247 0.18702612 0.20883383
 0.22219344 0.22235413 0.23189066 0.23191654]  max|de|= -0.215  lindep= 0.0923
root 3 converged  |r|= 3.64e-07  e= 0.18051246661702525  max|de|= 1.54e-14
root 5 converged  |r|= 2.47e-07  e= 0.20883383106558956  max|de|= -8.03e-14
root 9 converged  |r|= 3.48e-07  e= 0.23191654334980188  max|de|= -2.48e-14
davidson 37 10  |r|= 1.18  e= [0.04223533 0.14410755 0.16626624 0.18051247 0.18702612 0.20883383
 0.22219344 0.22235413 0.23189066 0.23191654]  max|de|= 4.55e-13  lindep=  0.3
Old state -> New state
    5     ->     1 
    3     ->     2 
    4     ->     3 
    5     ->     4 
    6     ->     5 
    7     ->     6 
    8     ->     7 
    9     ->     8 
    2     ->     9 
davidson 38 13  |r|= 1.31  e= [0.04251892 0.10122298 0.18051246 0.18702612 0.20883383 0.22219344
 0.22235413 0.23189066 0.23191654 0.25505227]  max|de|= -0.108  lindep= 0.25
Old state -> New state
    0     ->     1 
root 2 converged  |r|= 6.08e-08  e= 0.18051246284624997  max|de|= 1.07e-10
root 4 converged  |r|= 8.85e-08  e= 0.20883382849894644  max|de|= -8.41e-10
davidson 39 16  |r|= 1.25  e= [0.00456175 0.07791946 0.18051246 0.18702612 0.20883383 0.22219344
 0.22235413 0.23189066 0.23191654 0.25605964]  max|de|= -0.038  lindep= 0.148
Old state -> New state
    2     ->     1 
    3     ->     2 
root 8 converged  |r|= 4.45e-07  e= 0.23191654282458815  max|de|= -1.57e-10
davidson 40 19  |r|= 1.05  e= [0.08201464 0.18051246 0.18702612 0.18822519 0.20883383 0.22219344
 0.22235413 0.23189066 0.23191654 0.26186053]  max|de|= 0.0775  lindep= 0.309
Old state -> New state
    0     ->     1 
    1     ->     2 
    2     ->     3 
davidson 41 22  |r|= 0.868  e= [0.08868098 0.09503611 0.18051246 0.18702612 0.20883383 0.22219344
 0.22235413 0.23189066 0.23191654 0.23951044]  max|de|= -0.0224  lindep= 0.106
davidson 42 25  |r|= 1.16  e= [0.00111133 0.03843635 0.18051246 0.18702612 0.20883383 0.22219344
 0.22235413 0.23189066 0.23191654 0.24878317]  max|de|= -0.0876  lindep= 0.218
Old state -> New state
    1     ->     0 
    5     ->     6 
    6     ->     7 
    7     ->     8 
    8     ->     9 
davidson 43 28  |r|= 1.31  e= [0.02354573 0.04065284 0.18051246 0.18702612 0.20883383 0.22089255
 0.22219344 0.22235413 0.23189066 0.23191654]  max|de|= -0.0149  lindep= 0.15
Old state -> New state
    1     ->     0 
    6     ->     5 
    7     ->     6 
    8     ->     7 
    9     ->     8 
    5     ->     9 
root 8 converged  |r|= 1.75e-07  e= 0.23191654324043098  max|de|= -6.29e-10
davidson 44 31  |r|= 1.66  e= [0.00791727 0.12125914 0.18051246 0.18702612 0.20883383 0.22219344
 0.22235413 0.23189066 0.23191654 0.24122579]  max|de|= 0.0806  lindep= 0.096
Old state -> New state
    2     ->     3 
    3     ->     4 
    4     ->     5 
    5     ->     6 
    6     ->     7 
    7     ->     8 
    8     ->     9 
davidson 45 34  |r|= 1.63  e= [0.00816223 0.06531901 0.18051246 0.18399312 0.18702612 0.20883383
 0.22219344 0.22235413 0.23189066 0.23191654]  max|de|= -0.0559  lindep= 0.0157
Old state -> New state
    2     ->     1 
    4     ->     2 
    5     ->     3 
    5     ->     4 
    6     ->     5 
    7     ->     6 
    8     ->     7 
    9     ->     8 
    1     ->     9 
davidson 46 37  |r|= 1.63  e= [0.00834285 0.18051246 0.18702612 0.20199325 0.20883383 0.22219344
 0.22235413 0.23189066 0.23191655 0.23260233]  max|de|= 0.167  lindep= 0.00408
Old state -> New state
    1     ->     0 
    2     ->     1 
    4     ->     2 
    5     ->     3 
    6     ->     4 
    7     ->     5 
    8     ->     6 
    9     ->     7 
    3     ->     8 
    3     ->     9 
davidson 47 41  |r|= 0.515  e= [0.18051246 0.18702612 0.20883383 0.22219344 0.22235413 0.23189066
 0.23191654 0.23872214 0.29859427 0.31266566]  max|de|= 0.111  lindep= 0.474
Old state -> New state
    2     ->     3 
    3     ->     4 
    4     ->     5 
    5     ->     6 
    6     ->     7 
    7     ->     8 
    8     ->     9 
root 7 converged  |r|= 7.25e-08  e= 0.2319165431727231  max|de|= -5.4e-11
davidson 48 44  |r|= 1.04  e= [0.18051246 0.18702612 0.20883383 0.21415163 0.22219344 0.22235413
 0.23189066 0.23191654 0.23879816 0.28507328]  max|de|= -0.0135  lindep= 0.307
Old state -> New state
    3     ->     0 
    0     ->     1 
    0     ->     2 
    1     ->     3 
    2     ->     4 
    4     ->     5 
    5     ->     6 
    6     ->     7 
    7     ->     8 
    8     ->     9 
davidson 49 47  |r|= 1.24  e= [0.109364   0.17610003 0.18051247 0.18702612 0.20883383 0.22219344
 0.22235413 0.23189066 0.23191654 0.23885637]  max|de|= -0.105  lindep= 0.163
Old state -> New state
    0     ->     1 
davidson 50 50  |r|= 1.12  e= [0.06296652 0.12108702 0.18051246 0.18702612 0.20883383 0.22219344
 0.22235413 0.23189066 0.23191654 0.23876168]  max|de|= -0.0464  lindep= 0.079
Old state -> New state
    0     ->     1 
root 2 converged  |r|= 4.43e-08  e= 0.18051246291236897  max|de|= -1.93e-10
davidson 51 53  |r|= 1.47  e= [0.06247272 0.08697397 0.18051246 0.18702612 0.20883383 0.22219344
 0.22235413 0.23189066 0.23191654 0.23869096]  max|de|= 0.024  lindep= 0.0139
Old state -> New state
    2     ->     1 
    3     ->     2 
    4     ->     3 
davidson 52 56  |r|= 1.15  e= [0.05864695 0.18051246 0.18702612 0.20142813 0.20883383 0.22219344
 0.22235413 0.23189066 0.23191654 0.23876651]  max|de|= -0.00741  lindep= 0.026
Old state -> New state
    0     ->     1 
    1     ->     2 
    2     ->     3 
davidson 53 59  |r|= 1.11  e= [0.03065265 0.07366693 0.18051246 0.18702612 0.20883383 0.22219344
 0.22235413 0.23189066 0.23191654 0.23877551]  max|de|= -0.028  lindep= 0.109
Old state -> New state
    2     ->     1 
    3     ->     2 
    4     ->     3 
    5     ->     4 
    6     ->     5 
    4     ->     6 
davidson 54 62  |r|= 1.29  e= [0.00496739 0.18051246 0.18702612 0.20883383 0.22219344 0.22235413
 0.2241984  0.23189066 0.23191654 0.23875935]  max|de|= -0.0257  lindep= 0.0353
Old state -> New state
    4     ->     5 
    5     ->     6 
davidson 55 65  |r|= 0.988  e= [0.04491936 0.18051246 0.18702612 0.20883383 0.22219343 0.22221218
 0.22235413 0.23189066 0.23191654 0.23873855]  max|de|= 0.04  lindep= 0.116
Old state -> New state
    0     ->     1 
    1     ->     2 
    2     ->     3 
    3     ->     4 
    3     ->     5 
    4     ->     6 
    6     ->     7 
    7     ->     8 
    8     ->     9 
root 2 converged  |r|= 7.95e-08  e= 0.1805124622936288  max|de|= 3.84e-10
davidson 56 70  |r|= 1.22  e= [0.02022433 0.13952737 0.18051246 0.18702612 0.20883383 0.2144529
 0.22219344 0.22235413 0.23189066 0.23191654]  max|de|= 0.0946  lindep= 0.0574
Old state -> New state
    0     ->     1 
    6     ->     5 
    7     ->     6 
    8     ->     7 
    9     ->     8 
    5     ->     9 
root 5 converged  |r|= 2.35e-08  e= 0.22219343974565767  max|de|= -1.94e-11
root 6 converged  |r|= 9.47e-09  e= 0.22235413204292073  max|de|= 1.7e-11
davidson 57 73  |r|= 1.43  e= [0.02093082 0.07209622 0.18051246 0.18702612 0.20883383 0.22219344
 0.22235413 0.23189066 0.23191654 0.23876075]  max|de|= 0.0519  lindep= 0.0237
Old state -> New state
    2     ->     1 
    3     ->     2 
    4     ->     3 
    5     ->     4 
    6     ->     5 
    7     ->     6 
    8     ->     7 
    9     ->     8 
    0     ->     9 
davidson 58 76  |r|= 1.17  e= [0.09974884 0.18051247 0.18702612 0.20883383 0.22219344 0.22235413
 0.23189066 0.23191654 0.23875795 0.27761857]  max|de|= 0.257  lindep= 0.116
Old state -> New state
    1     ->     0 
    2     ->     1 
    3     ->     2 
    7     ->     8 
    8     ->     9 
davidson 59 80  |r|= 0.398  e= [0.18051234 0.18702612 0.20699091 0.20883426 0.22219344 0.22235413
 0.23189066 0.23191665 0.23212069 0.23875629]  max|de|= -0.00184  lindep= 0.154
davidson 60 10  |r|= 0.398  e= [0.18051247 0.18702612 0.20699126 0.20883386 0.22219344 0.22235413
 0.23189066 0.23191639 0.23212099 0.23875619]  max|de|= -3.99e-07  lindep= 0.332
Old state -> New state
    2     ->     0 
    0     ->     1 
    1     ->     2 
    9     ->     8 
root 6 converged  |r|= 8.45e-08  e= 0.23189065566130865  max|de|= 2.02e-10
davidson 61 17  |r|= 1.39  e= [0.02015762 0.18051247 0.18702612 0.20883383 0.22219344 0.22235413
 0.23189066 0.23191655 0.23876463 0.27926009]  max|de|= -0.187  lindep= 0.362
Old state -> New state
    1     ->     2 
    1     ->     3 
    2     ->     4 
    3     ->     5 
    4     ->     6 
    5     ->     7 
    6     ->     8 
    7     ->     9 
root 4 converged  |r|= 4.28e-07  e= 0.1870261234178244  max|de|= -6.14e-10
davidson 62 21  |r|= 1.55  e= [0.05531348 0.12241632 0.15690012 0.18051248 0.18702612 0.20883383
 0.22219344 0.22235413 0.23189066 0.23191654]  max|de|= -0.0581  lindep= 0.138
Old state -> New state
    3     ->     1 
    4     ->     2 
    5     ->     3 
    6     ->     4 
    7     ->     5 
    8     ->     6 
    9     ->     7 
    9     ->     8 
    1     ->     9 
davidson 63 26  |r|= 1.31  e= [0.03647031 0.18051246 0.18702612 0.20883383 0.22219344 0.22235413
 0.23189066 0.23191659 0.23544587 0.23888335]  max|de|= 0.116  lindep= 0.275
Old state -> New state
    3     ->     1 
    1     ->     2 
    2     ->     3 
    3     ->     4 
    4     ->     5 
    5     ->     6 
    6     ->     7 
    7     ->     8 
davidson 64 30  |r|= 1.17  e= [0.03960643 0.15227411 0.18051246 0.18702612 0.20883383 0.22219344
 0.22235413 0.23189066 0.23191654 0.23876529]  max|de|= -0.0566  lindep= 0.135
Old state -> New state
    2     ->     1 
    3     ->     2 
    4     ->     3 
    5     ->     4 
    6     ->     5 
    9     ->     6 
root 3 converged  |r|= 1.94e-07  e= 0.2088338285149712  max|de|= -6.7e-11
davidson 65 33  |r|=  1.2  e= [0.0368356  0.18051246 0.18702612 0.20883383 0.22219344 0.22235413
 0.23008168 0.23189066 0.23191655 0.23875441]  max|de|= -0.00868  lindep= 0.115
Old state -> New state
    9     ->     1 
    1     ->     2 
    2     ->     3 
    3     ->     4 
    4     ->     5 
    5     ->     6 
root 2 converged  |r|= 2.5e-07  e= 0.18051246020789996  max|de|= -5.25e-10
davidson 66 37  |r|= 1.35  e= [0.03713959 0.12347325 0.18051246 0.18702612 0.20883383 0.22219344
 0.22235413 0.23189066 0.23191655 0.23876828]  max|de|= -0.115  lindep= 0.0637
Old state -> New state
    2     ->     1 
davidson 67 41  |r|= 1.17  e= [0.03124392 0.15355075 0.18051246 0.18702612 0.20883383 0.22219344
 0.22235413 0.23189066 0.23191654 0.23876208]  max|de|= -0.027  lindep= 0.0849
Old state -> New state
    2     ->     1 
    3     ->     2 
    4     ->     3 
root 8 converged  |r|= 5.55e-07  e= 0.23191654453628854  max|de|= 9.81e-10
davidson 68 44  |r|= 1.07  e= [0.01829266 0.18051246 0.18702612 0.20883383 0.21535134 0.22219344
 0.22235413 0.23189066 0.23191654 0.23876512]  max|de|= -0.013  lindep= 0.0503
Old state -> New state
    5     ->     4 
    6     ->     5 
    7     ->     6 
    8     ->     7 
    9     ->     8 
davidson 69 47  |r|= 1.02  e= [0.1383662  0.18051246 0.18702612 0.20883383 0.22219344 0.22235413
 0.23189066 0.23191654 0.23876448 0.25423102]  max|de|= 0.12  lindep= 0.21
root 1 converged  |r|= 1.11e-07  e= 0.18051246115513617  max|de|= -1.2e-10
root 3 converged  |r|= 2.93e-08  e= 0.2088338285859544  max|de|= 2.09e-11
root 7 converged  |r|= 1.99e-07  e= 0.23191654357069505  max|de|= 2.12e-10
davidson 70 50  |r|= 0.819  e= [0.11258393 0.18051246 0.18702612 0.20883383 0.22219344 0.22235413
 0.23189066 0.23191654 0.23876396 0.29392361]  max|de|= 0.0397  lindep= 0.113
Old state -> New state
    8     ->     0 
    0     ->     1 
    1     ->     2 
    2     ->     3 
    3     ->     4 
    4     ->     5 
    5     ->     6 
    6     ->     8 
    7     ->     9 
davidson 71 53  |r|= 1.25  e= [0.02725769 0.09464441 0.18051246 0.18702612 0.20883383 0.22219344
 0.22235413 0.22983274 0.23189066 0.23191655]  max|de|= -0.212  lindep= 0.12
Old state -> New state
    3     ->     1 
    8     ->     7 
    9     ->     8 
    7     ->     9 
davidson 72 57  |r|= 1.28  e= [0.02787723 0.13295668 0.18051246 0.18702612 0.20883383 0.22219344
 0.22235413 0.23189066 0.23191654 0.23876205]  max|de|= -0.0541  lindep= 0.0336
Old state -> New state
    2     ->     1 
    3     ->     2 
    4     ->     3 
    5     ->     4 
    6     ->     5 
    7     ->     6 
    8     ->     7 
    9     ->     8 
root 7 converged  |r|= 1.41e-07  e= 0.23191654307605522  max|de|= 9e-11
davidson 73 60  |r|= 1.12  e= [0.02814158 0.18051246 0.18702612 0.20883383 0.22219344 0.22235413
 0.23189066 0.23191654 0.23876236 0.25732906]  max|de|= 0.0186  lindep= 0.0126
Old state -> New state
    1     ->     0 
    2     ->     1 
    3     ->     2 
    8     ->     9 
davidson 74 63  |r|= 0.351  e= [0.18051246 0.18702612 0.20883383 0.21014627 0.22219344 0.22235413
 0.23189066 0.23191654 0.23876443 0.27414025]  max|de|= 0.0354  lindep= 0.21
Old state -> New state
    9     ->     0 
    0     ->     1 
    1     ->     2 
    2     ->     3 
    3     ->     4 
    4     ->     5 
    5     ->     6 
    6     ->     7 
    7     ->     8 
    8     ->     9 
root 3 converged  |r|= 1.81e-07  e= 0.20883382928844843  max|de|= -5.76e-10
davidson 75 66  |r|= 1.18  e= [0.02182355 0.18051246 0.18702612 0.20883383 0.21067692 0.22219344
 0.22235413 0.23189066 0.23191654 0.23876386]  max|de|= -0.252  lindep= 0.146
Old state -> New state
    9     ->     1 
    1     ->     2 
    1     ->     3 
    2     ->     4 
    3     ->     5 
    5     ->     6 
    6     ->     7 
    7     ->     8 
    8     ->     9 
davidson 76 69  |r|= 1.16  e= [0.01237163 0.03288339 0.17497108 0.18051246 0.18702612 0.20883383
 0.22219344 0.22235413 0.23189066 0.23191654]  max|de|= -0.206  lindep= 0.0785
Old state -> New state
    3     ->     1 
    4     ->     2 
    5     ->     3 
    6     ->     4 
    7     ->     5 
    9     ->     6 
    8     ->     7 
    9     ->     8 
    1     ->     9 
davidson 77 72  |r|= 1.04  e= [0.13857415 0.18051246 0.18702612 0.20883383 0.22219344 0.22235413
 0.23132076 0.23189066 0.23191655 0.23876003]  max|de|= 0.206  lindep= 0.111
Old state -> New state
    7     ->     6 
    8     ->     7 
    9     ->     8 
root 1 converged  |r|= 5.37e-08  e= 0.18051246285643988  max|de|= 6.14e-10
davidson 78 76  |r|= 0.969  e= [0.13217432 0.18051246 0.18702612 0.20883383 0.22219344 0.22235413
 0.23189066 0.23191654 0.23876214 0.25914606]  max|de|= 0.0204  lindep= 0.03
Old state -> New state
    0     ->     1 
    1     ->     2 
    2     ->     3 
    3     ->     4 
    4     ->     5 
    5     ->     6 
    6     ->     7 
    7     ->     8 
    6     ->     9 
davidson 79 79  |r|= 1.05  e= [0.12997222 0.14363409 0.18051246 0.18702612 0.20883383 0.22219344
 0.22235413 0.23189066 0.23191653 0.23195107]  max|de|= 0.0115  lindep= 0.0245
root 5 converged  |r|= 4.68e-07  e= 0.2221934392225518  max|de|= 4.8e-10
davidson 80 10  |r|= 1.05  e= [0.12997222 0.14363409 0.18051246 0.18702612 0.20883383 0.22219344
 0.22235413 0.23189066 0.23191653 0.23195107]  max|de|= 6.46e-09  lindep= 0.223
Old state -> New state
    4     ->     5 
    5     ->     6 
    6     ->     7 
    7     ->     8 
    8     ->     9 
davidson 81 14  |r|= 1.03  e= [0.12989991 0.14310725 0.18051246 0.18702612 0.20646172 0.20883383
 0.22219344 0.22235413 0.23189066 0.23191654]  max|de|= -0.00237  lindep= 0.0249
Old state -> New state
    0     ->     1 
    1     ->     2 
    2     ->     3 
    3     ->     4 
root 6 converged  |r|= 1.18e-07  e= 0.2221934407198828  max|de|= 3.74e-12
root 9 converged  |r|= 2.21e-07  e= 0.23191654252420768  max|de|= -5.05e-10
davidson 82 17  |r|= 1.33  e= [0.06419363 0.12244288 0.13585346 0.18051246 0.18702612 0.20883383
 0.22219344 0.22235413 0.23189066 0.23191654]  max|de|= -0.0657  lindep= 0.168
Old state -> New state
    3     ->     1 
    4     ->     2 
    5     ->     3 
    6     ->     4 
    7     ->     5 
    8     ->     6 
    9     ->     7 
    2     ->     8 
    2     ->     9 
root 3 converged  |r|= 2.51e-08  e= 0.20883382904605197  max|de|= 5.66e-11
davidson 83 20  |r|= 1.31  e= [0.14933921 0.18051246 0.18702612 0.20883383 0.22219344 0.22235413
 0.23189066 0.23191654 0.24874272 0.30634657]  max|de|= 0.17  lindep= 0.288
Old state -> New state
    9     ->     0 
root 7 converged  |r|= 2.57e-07  e= 0.2319165417555682  max|de|= 3.04e-10
davidson 84 23  |r|= 1.37  e= [0.09200215 0.18051246 0.18702612 0.20883383 0.22219344 0.22235413
 0.23189066 0.23191654 0.27022062 0.33752121]  max|de|= -0.214  lindep= 0.198
davidson 85 26  |r|= 1.33  e= [0.01614971 0.18051246 0.18702612 0.20883383 0.22219344 0.22235413
 0.23189066 0.23191654 0.31680538 0.3975688 ]  max|de|= -0.0759  lindep= 0.265
Old state -> New state
    1     ->     0 
    2     ->     1 
    3     ->     2 
    4     ->     3 
    5     ->     4 
    7     ->     5 
    0     ->     8 
    8     ->     9 
davidson 86 30  |r|= 0.513  e= [0.18051246 0.18702612 0.20883383 0.22219344 0.22235413 0.2303298
 0.23189066 0.23191655 0.2648239  0.32380751]  max|de|= 0.249  lindep=  0.3
Old state -> New state
    2     ->     3 
    3     ->     4 
    4     ->     5 
    8     ->     9 
root 4 converged  |r|= 1.83e-07  e= 0.22219343988939308  max|de|= 2.45e-10
davidson 87 34  |r|= 0.614  e= [0.18051246 0.18702612 0.19530596 0.20883383 0.22219344 0.22235413
 0.23189066 0.23191654 0.24762422 0.28706386]  max|de|= 0.0222  lindep= 0.217
Old state -> New state
    0     ->     1 
    1     ->     2 
davidson 88 37  |r|= 1.03  e= [0.15307542 0.18051246 0.18702612 0.20883383 0.22219344 0.22235413
 0.23189066 0.23191654 0.24071026 0.28695047]  max|de|= -0.0274  lindep= 0.209
Old state -> New state
    8     ->     0 
    1     ->     2 
    2     ->     3 
    3     ->     4 
    4     ->     5 
    5     ->     6 
    6     ->     7 
    7     ->     8 
    8     ->     9 
root 8 converged  |r|= 1.08e-07  e= 0.2319165429978024  max|de|= -3.73e-10
davidson 89 40  |r|= 1.43  e= [0.12526154 0.18051246 0.18268033 0.18702612 0.20883383 0.22219344
 0.22235413 0.23189066 0.23191654 0.23868839]  max|de|= -0.115  lindep= 0.234
Old state -> New state
    0     ->     1 
    1     ->     2 
davidson 90 43  |r|= 1.35  e= [0.04543223 0.11441664 0.18051246 0.18702612 0.20883383 0.22219344
 0.22235413 0.23189066 0.23191654 0.2391891 ]  max|de|= -0.0798  lindep= 0.132
Old state -> New state
    0     ->     1 
root 2 converged  |r|= 3.61e-08  e= 0.18051246277080046  max|de|= 5.04e-11
davidson 91 46  |r|= 1.48  e= [0.0385197  0.07401233 0.18051246 0.18702612 0.20883383 0.22219344
 0.22235413 0.23189066 0.23191654 0.23804032]  max|de|= 0.0286  lindep= 0.072
Old state -> New state
    0     ->     1 
davidson 92 49  |r|= 1.36  e= [0.01378671 0.11372731 0.18051246 0.18702612 0.20883383 0.22219344
 0.22235413 0.23189066 0.23191654 0.23869911]  max|de|= 0.0752  lindep= 0.0702
Old state -> New state
    2     ->     1 
    3     ->     2 
    4     ->     3 
    5     ->     4 
    6     ->     5 
    7     ->     6 
    8     ->     7 
    1     ->     8 
davidson 93 52  |r|= 1.05  e= [0.11855515 0.18051246 0.18702612 0.20883383 0.22219344 0.22235413
 0.23189066 0.23191654 0.27880346 0.28837221]  max|de|= 0.165  lindep= 0.148
Old state -> New state
    9     ->     3 
    3     ->     4 
    4     ->     5 
    5     ->     6 
    6     ->     7 
    7     ->     8 
    0     ->     9 
davidson 94 55  |r|= 1.07  e= [0.11758141 0.18051246 0.18702612 0.19527612 0.20883383 0.22219344
 0.22235413 0.23189066 0.23191654 0.23898242]  max|de|= 0.12  lindep= 0.0159
Old state -> New state
    3     ->     0 
    0     ->     2 
    1     ->     3 
    2     ->     4 
    4     ->     5 
    5     ->     6 
    6     ->     7 
    7     ->     8 
    8     ->     9 
davidson 95 58  |r|= 1.39  e= [0.00907174 0.06371406 0.11946575 0.18051246 0.18702612 0.20883383
 0.22219344 0.22235413 0.23189066 0.23191654]  max|de|= -0.186  lindep= 0.0985
Old state -> New state
    3     ->     1 
    4     ->     2 
    5     ->     3 
    6     ->     4 
    7     ->     5 
    8     ->     6 
    9     ->     7 
    2     ->     8 
    2     ->     9 
davidson 96 61  |r|= 1.47  e= [0.04712993 0.18051246 0.18702612 0.20883383 0.22219344 0.22235413
 0.23189066 0.23191654 0.23862357 0.2764238 ]  max|de|= 0.157  lindep= 0.0729
Old state -> New state
    1     ->     0 
    2     ->     1 
    3     ->     2 
    4     ->     3 
    5     ->     4 
    6     ->     5 
    7     ->     6 
    8     ->     7 
    0     ->     8 
davidson 97 64  |r|= 1.14  e= [0.18051246 0.18702612 0.20883383 0.22219344 0.22235413 0.23189066
 0.23191654 0.23870943 0.25117652 0.27727549]  max|de|= 0.204  lindep= 0.14
Old state -> New state
    9     ->     8 
davidson 98 67  |r|= 0.114  e= [0.18051246 0.18702612 0.20883383 0.22219344 0.22235413 0.23189066
 0.23191654 0.23875881 0.27717247 0.28077408]  max|de|= 0.0035  lindep= 0.43
Old state -> New state
    2     ->     0 
    0     ->     1 
    1     ->     2 
    2     ->     3 
    3     ->     4 
    4     ->     5 
    5     ->     6 
    6     ->     7 
    2     ->     8 
    7     ->     9 
davidson 99 70  |r|= 1.21  e= [0.14259465 0.18051246 0.18702612 0.20883383 0.22219344 0.22235413
 0.23189066 0.23191654 0.23428139 0.23874583]  max|de|= -0.0662  lindep= 0.134
    CPU time for TDDFT   1542.15 sec, wall time     55.36 sec
TD-SCF states [0, 8, 9] not converged.
Excited State energies (eV)
[3.88019806 4.91199432 5.08924006 5.68265793 6.04619146 6.05056412
 6.31006614 6.31077058 6.37512148 6.49660503]
