 
:: initializing oneAPI environment ...
   slurm_script: BASH_VERSION = 4.2.46(1)-release
   args: Using "$@" for setvars.sh arguments: --force
:: advisor -- latest
:: ccl -- latest
:: clck -- latest
:: compiler -- latest
:: dal -- latest
:: debugger -- latest
:: dev-utilities -- latest
:: dnnl -- latest
:: dpcpp-ct -- latest
:: dpl -- latest
:: inspector -- latest
:: intelpython -- latest
:: ipp -- latest
:: ippcp -- latest
:: ipp -- latest
:: itac -- latest
:: mkl -- latest
:: mpi -- latest
:: tbb -- latest
:: vpl -- latest
:: vtune -- latest
:: oneAPI environment initialized ::
 
SLURM_CPUS_PER_TASK = 28
SLURM_MEM_PER_NODE = 256000
#INFO: **** input file is /home/yangjunjie/work/py-ch3-cl/work/step_-6/main.py ****
import sys
import pyscf
from pyscf import tdscf

def main(xyz_file, basis="631g*", xc="b3lyp", output="ene.out"):
    xyz = None

    with open(xyz_file, "r") as xyz:
        xyz = xyz.readlines()[2:]
        xyz = "".join(xyz)

    mol = pyscf.gto.Mole()
    mol.atom = xyz
    mol.basis = basis
    mol.verbose = 5
    mol.build()

    if xc is not None and xc != "hf":
        mf = pyscf.scf.RKS(mol)
        mf.xc = xc
        mf.kernel()
    else:
        mf = pyscf.scf.RHF(mol)
        mf.kernel()

    ene_mf = mf.e_tot

    tda = pyscf.tdscf.TDA(mf)
    tda.nstates = 10
    tda.kernel()
    ene_tda = tda.e[:5]
    dip_tda = tda.transition_dipole()[:5]

    rpa = pyscf.tdscf.RPA(mf)
    rpa.nstates = 10
    rpa.kernel()
    ene_rpa = rpa.e[:5]
    dip_rpa = rpa.transition_dipole()[:5]

    with open(output, "w") as f:
        f.write(f"RKS energy: {ene_mf: 12.8f}\n")
        f.write("TDA results:\n")
        for i, (ene, dip) in enumerate(zip(ene_tda, dip_tda)):
            f.write(f" {i:2d} {ene: 12.8f} {dip[0]: 12.8f} {dip[1]: 12.8f} {dip[2]: 12.8f}\n")
        
        f.write("\nRPA results:\n")
        for i, (ene, dip) in enumerate(zip(ene_rpa, dip_rpa)):
            f.write(f" {i:2d} {ene: 12.8f} {dip[0]: 12.8f} {dip[1]: 12.8f} {dip[2]: 12.8f}\n")

if __name__ == "__main__":
    xyz = sys.argv[1]
    main(xyz, basis="631g*", xc="b3lyp", output="out.log")
#INFO: ******************** input file end ********************


System: uname_result(system='Linux', node='pauling004', release='3.10.0-327.36.3.el7.x86_64', version='#1 SMP Thu Oct 20 04:56:07 EDT 2016', machine='x86_64')  Threads 28
Python 3.9.7 (default, Oct 27 2021, 01:23:21) 
[GCC 9.3.0]
numpy 1.21.2  scipy 1.6.2
Date: Tue Sep 27 23:12:32 2022
PySCF version 2.0.1
PySCF path  /home/yangjunjie/packages/pyscf/pyscf-main
GIT ORIG_HEAD 14b880cdc4bf7bb64f3989a147c0b04622efc498
GIT HEAD (branch master) 9d5b5bd309d1cc55fbd1a0ec76e26b5b0c7f76af

[ENV] PYSCF_MAX_MEMORY 256000
[ENV] PYSCF_TMPDIR /scratch/global/yangjunjie/
[CONFIG] conf_file /home/yangjunjie/.pyscf_conf.py
[INPUT] verbose = 5
[INPUT] max_memory = 256000 
[INPUT] num. atoms = 16
[INPUT] num. electrons = 68
[INPUT] charge = 0
[INPUT] spin (= nelec alpha-beta = 2S) = 0
[INPUT] symmetry False subgroup None
[INPUT] Mole.unit = angstrom
[INPUT]  1 C      0.000000010000   1.160154690000   1.062119300000 AA    0.000000018897   2.192374626230   2.007114588615 Bohr
[INPUT]  2 C      0.000000000000   1.200808310000   2.448561040000 AA    0.000000000000   2.269198834002   4.627109764880 Bohr
[INPUT]  3 C     -0.000000010000  -0.012644650000   3.132544930000 AA   -0.000000018897  -0.023894925441   5.919651990595 Bohr
[INPUT]  4 C     -0.000000010000  -1.212959680000   2.425360570000 AA   -0.000000018897  -2.292161595340   4.583267230619 Bohr
[INPUT]  5 C      0.000000000000  -1.145860860000   1.039831210000 AA    0.000000000000  -2.165363202259   1.964996202675 Bohr
[INPUT]  6 N      0.000000010000   0.014070620000   0.405168090000 AA    0.000000018897   0.026589618203   0.765656724513 Bohr
[INPUT]  7 C      0.000000010000   0.002311830000  -1.934727400000 AA    0.000000018897   0.004368725547  -3.656104911692 Bohr
[INPUT]  8 H      0.000000020000   2.065905370000   0.453741460000 AA    0.000000037795   3.903995348568   0.857447090760 Bohr
[INPUT]  9 H      0.000000000000   2.151403970000   2.961870560000 AA    0.000000000000   4.065564286602   5.597124174812 Bohr
[INPUT] 10 H     -0.000000010000  -0.022693250000   4.212838740000 AA   -0.000000018897  -0.042884027376   7.961111425558 Bohr
[INPUT] 11 H     -0.000000020000  -2.173023960000   2.920882830000 AA   -0.000000037795  -4.106420146518   5.519668590645 Bohr
[INPUT] 12 H      0.000000000000  -2.038833760000   0.413023610000 AA    0.000000000000  -3.852837419917   0.780501505879 Bohr
[INPUT] 13 H     -0.000000030000   1.055684950000  -1.654981770000 AA   -0.000000056692   1.994955429325  -3.127462286448 Bohr
[INPUT] 14 H     -0.911455920000  -0.519279770000  -1.644028410000 AA   -1.722402063413  -0.981296547327  -3.106763435904 Bohr
[INPUT] 15 H      0.911455930000  -0.519279720000  -1.644028420000 AA    1.722402082311  -0.981296452841  -3.106763454801 Bohr
[INPUT] 16 Cl    -0.000000010000   0.002498480000  -3.824430840000 AA   -0.000000018897   0.004721442928  -7.227126869940 Bohr
[INPUT] ---------------- BASIS SET ---------------- 
[INPUT] l, kappa, [nprim/nctr], expnt,             c_1 c_2 ...
[INPUT] Cl
[INPUT] 0    0    [6    /1   ]  25180.1           0.001833
                                3780.35           0.014034
                                860.474           0.069097
                                242.145           0.237452
                                77.3349           0.483034
                                26.247            0.339856
[INPUT] 0    0    [6    /1   ]  491.765           -0.0022974
                                116.984           -0.030714
                                37.4153           -0.112528
                                13.7834           0.045016
                                5.45215           0.589353
                                2.22588           0.465206
[INPUT] 0    0    [3    /1   ]  3.18649           -0.25183
                                1.14427           0.061589
                                0.420377          1.06018
[INPUT] 0    0    [1    /1   ]  0.142657             1
[INPUT] 1    0    [6    /1   ]  491.765           0.0039894
                                116.984           0.030318
                                37.4153           0.12988
                                13.7834           0.327951
                                5.45215           0.453527
                                2.22588           0.252154
[INPUT] 1    0    [3    /1   ]  3.18649           -0.014299
                                1.14427           0.323572
                                0.420377          0.743507
[INPUT] 1    0    [1    /1   ]  0.142657             1
[INPUT] 2    0    [1    /1   ]  0.75                 1
[INPUT] N
[INPUT] 0    0    [6    /1   ]  4173.511          0.0018348
                                627.4579          0.013995
                                142.9021          0.068587
                                40.23433          0.232241
                                12.82021          0.46907
                                4.390437          0.360455
[INPUT] 0    0    [3    /1   ]  11.626358         -0.114961
                                2.71628           -0.169118
                                0.772218          1.145852
[INPUT] 0    0    [1    /1   ]  0.2120313            1
[INPUT] 1    0    [3    /1   ]  11.626358         0.06758
                                2.71628           0.323907
                                0.772218          0.740895
[INPUT] 1    0    [1    /1   ]  0.2120313            1
[INPUT] 2    0    [1    /1   ]  0.8                  1
[INPUT] C
[INPUT] 0    0    [6    /1   ]  3047.5249         0.0018347
                                457.36951         0.0140373
                                103.94869         0.0688426
                                29.210155         0.2321844
                                9.286663          0.4679413
                                3.163927          0.362312
[INPUT] 0    0    [3    /1   ]  7.8682724         -0.1193324
                                1.8812885         -0.1608542
                                0.5442493         1.1434564
[INPUT] 0    0    [1    /1   ]  0.1687144            1
[INPUT] 1    0    [3    /1   ]  7.8682724         0.0689991
                                1.8812885         0.316424
                                0.5442493         0.7443083
[INPUT] 1    0    [1    /1   ]  0.1687144            1
[INPUT] 2    0    [1    /1   ]  0.8                  1
[INPUT] H
[INPUT] 0    0    [3    /1   ]  18.731137         0.0334946
                                2.8253937         0.23472695
                                0.6401217         0.81375733
[INPUT] 0    0    [1    /1   ]  0.1612778            1

nuclear repulsion = 381.624380685027
number of shells = 66
number of NR pGTOs = 272
number of NR cGTOs = 132
basis = 631g*
ecp = {}
CPU time:         0.39


******** <class 'pyscf.dft.rks.RKS'> ********
method = RKS
initial guess = minao
damping factor = 0
level_shift factor = 0
DIIS = <class 'pyscf.scf.diis.CDIIS'>
diis_start_cycle = 1
diis_space = 8
SCF conv_tol = 1e-09
SCF conv_tol_grad = None
SCF max_cycles = 50
direct_scf = True
direct_scf_tol = 1e-13
chkfile to save SCF result = /scratch/global/yangjunjie/tmpihsm5g9m
max_memory 256000 MB (current use 81 MB)
XC library pyscf.dft.libxc version 5.2.0
    S. Lehtola, C. Steigemann, M. J. Oliveira, and M. A. Marques, SoftwareX 7, 1 (2018)
XC functionals = b3lyp
    P. A. M. Dirac, Math. Proc. Cambridge Philos. Soc. 26, 376 (1930)
    F. Bloch, Z. Phys. 57, 545 (1929)
    A. D. Becke, Phys. Rev. A 38, 3098 (1988)
    C. Lee, W. Yang, and R. G. Parr, Phys. Rev. B 37, 785 (1988)
    B. Miehlich, A. Savin, H. Stoll, and H. Preuss, Chem. Phys. Lett. 157, 200 (1989)
    S. H. Vosko, L. Wilk, and M. Nusair, Can. J. Phys. 58, 1200 (1980)
radial grids: 
    Treutler-Ahlrichs [JCP 102, 346 (1995); DOI:10.1063/1.469408] (M4) radial grids
    
becke partition: Becke, JCP 88, 2547 (1988); DOI:10.1063/1.454033
pruning grids: <function nwchem_prune at 0x7f8cb8ea8ee0>
grids dens level: 3
symmetrized grids: False
atomic radii adjust function: <function treutler_atomic_radii_adjust at 0x7f8cb8ea8e50>
small_rho_cutoff = 1e-07
Set gradient conv threshold to 3.16228e-05
atom C rad-grids = 75, ang-grids = [ 50  50  50  50  50  50  50  50  50  50  50  50  50  50  50  50  50  50
  50  50  50  50  50  86  86  86  86  86  86  86  86  86  86 266 266 266
 266 266 266 266 302 302 302 302 302 302 302 302 302 302 302 302 302 302
 302 302 302 302 302 302 266 266 266 266 266 266 266 266 266 266 266 266
 266 266 266]
atom N rad-grids = 75, ang-grids = [ 50  50  50  50  50  50  50  50  50  50  50  50  50  50  50  50  50  50
  50  50  50  50  50  86  86  86  86  86  86  86  86  86 266 266 266 266
 266 266 266 302 302 302 302 302 302 302 302 302 302 302 302 302 302 302
 302 302 302 302 266 266 266 266 266 266 266 266 266 266 266 266 266 266
 266 266 266]
atom H rad-grids = 50, ang-grids = [ 50  50  50  50  50  50  50  50  50  50  50  50  50  50  86  86  86  86
 266 266 266 266 302 302 302 302 302 302 302 302 302 302 302 302 302 266
 266 266 266 266 266 266 266 266 266 266 266 266 266 266]
atom Cl rad-grids = 80, ang-grids = [ 50  50  50  50  50  50  50  50  50  50  50  50  50  50  50  50  50  50
  50  50  50  50  50  50  86  86  86  86  86  86  86  86  86  86  86  86
  86 350 350 350 350 350 350 350 350 350 434 434 434 434 434 434 434 434
 434 434 434 434 434 434 434 434 434 434 350 350 350 350 350 350 350 350
 350 350 350 350 350 350 350 350]
tot grids = 196530
Drop grids 33527
    CPU time for setting up grids      3.18 sec, wall time      0.12 sec
nelec by numeric integration = 67.97653708839856
    CPU time for vxc      5.81 sec, wall time      0.21 sec
E1 = -1776.454052326339  Ecoul = 716.174753053844  Exc = -70.38012442919519
init E= -749.035043016664
cond(S) = 6551.037060718711
    CPU time for initialize scf     15.93 sec, wall time      0.64 sec
  HOMO = -0.292496718282542  LUMO = -0.0979452956047424
  mo_energy =
[-1.01596193e+02 -1.44111336e+01 -1.02920698e+01 -1.02914288e+01
 -1.02904036e+01 -1.02867718e+01 -1.02862690e+01 -1.02845370e+01
 -9.53686331e+00 -7.29267920e+00 -7.29177524e+00 -7.29177434e+00
 -1.10777828e+00 -9.38509340e-01 -9.15252695e-01 -8.90240464e-01
 -7.59128864e-01 -7.15078554e-01 -7.04377028e-01 -5.78685026e-01
 -5.33364537e-01 -5.11392129e-01 -4.74535929e-01 -4.73581378e-01
 -4.61549998e-01 -4.57507644e-01 -4.37911133e-01 -4.20100780e-01
 -3.99385552e-01 -3.46587714e-01 -3.44862582e-01 -3.25159043e-01
 -2.96370916e-01 -2.92496718e-01 -9.79452956e-02 -7.97014531e-02
 -4.35732528e-02  5.15894568e-02  7.00496462e-02  7.30360257e-02
  9.00537714e-02  1.13470869e-01  1.23347074e-01  1.23853810e-01
  1.43132832e-01  1.68196854e-01  2.06780581e-01  2.40008230e-01
  2.60214777e-01  2.64618309e-01  3.56792797e-01  3.89870872e-01
  4.00417214e-01  4.14830894e-01  4.15120346e-01  4.33312268e-01
  4.62410545e-01  4.79435278e-01  4.89573489e-01  5.17879200e-01
  5.25908462e-01  5.37565894e-01  5.41485908e-01  5.51526116e-01
  5.56641923e-01  5.58717749e-01  5.88389923e-01  6.09845964e-01
  6.39218408e-01  6.41436938e-01  7.22744846e-01  7.60851800e-01
  7.71653160e-01  7.84636653e-01  7.89983781e-01  7.90315834e-01
  8.00970406e-01  8.01234521e-01  8.24840649e-01  8.35820964e-01
  8.54377939e-01  8.71742869e-01  8.80636862e-01  8.97092758e-01
  9.14484015e-01  9.30487734e-01  9.74887564e-01  1.00241460e+00
  1.03780963e+00  1.08560047e+00  1.12299760e+00  1.16410232e+00
  1.17884524e+00  1.20326656e+00  1.30707855e+00  1.35131993e+00
  1.39827688e+00  1.41158263e+00  1.41485885e+00  1.44547168e+00
  1.45746042e+00  1.50005523e+00  1.62821732e+00  1.62885159e+00
  1.65472560e+00  1.72803583e+00  1.76318917e+00  1.78810849e+00
  1.86556237e+00  1.88642914e+00  1.99616114e+00  2.05577951e+00
  2.07385386e+00  2.09231370e+00  2.09517224e+00  2.10759412e+00
  2.15724475e+00  2.16333893e+00  2.18492124e+00  2.22736410e+00
  2.25590064e+00  2.30100640e+00  2.48198281e+00  2.48432688e+00
  2.59260269e+00  2.61399052e+00  2.63232356e+00  2.64974386e+00
  2.70135198e+00  2.70788370e+00  2.96455396e+00  3.33531856e+00]
nelec by numeric integration = 68.00003808722002
    CPU time for vxc      5.78 sec, wall time      0.21 sec
E1 = -1784.708616136591  Ecoul = 725.8451012787791  Exc = -70.83085550096234
cycle= 1 E= -748.069989673748  delta_E= 0.965  |g|= 0.386  |ddm|= 3.95
    CPU time for cycle= 1      6.25 sec, wall time      0.22 sec
  HOMO = -0.19661970780525  LUMO = 0.003548515657395
  mo_energy =
[-1.01306640e+02 -1.42084422e+01 -1.01979985e+01 -1.01972432e+01
 -1.01700189e+01 -1.01369851e+01 -1.01026976e+01 -1.01024364e+01
 -9.26766798e+00 -7.02740388e+00 -7.01852876e+00 -7.01851781e+00
 -9.13003506e-01 -7.67316189e-01 -7.46426005e-01 -7.44754516e-01
 -6.18018051e-01 -6.12082196e-01 -6.06137824e-01 -5.19806925e-01
 -4.64276201e-01 -4.50344190e-01 -4.25057542e-01 -4.10325130e-01
 -4.04114314e-01 -3.83231170e-01 -3.74333433e-01 -3.50163381e-01
 -3.15112533e-01 -2.57318677e-01 -2.47185965e-01 -2.04233928e-01
 -2.03660316e-01 -1.96619708e-01  3.54851566e-03  6.10527617e-03
  7.69501071e-02  1.09400698e-01  1.23798712e-01  1.30445655e-01
  1.54083011e-01  1.61767417e-01  1.70370040e-01  1.78268834e-01
  1.81154795e-01  2.12545883e-01  2.79142997e-01  3.05659154e-01
  3.36613383e-01  3.41577245e-01  4.51821825e-01  4.77455372e-01
  4.87047220e-01  5.22237892e-01  5.30179153e-01  5.31584935e-01
  5.41070533e-01  5.60326355e-01  5.71070912e-01  5.89168133e-01
  5.97991586e-01  6.08019765e-01  6.19118315e-01  6.19195107e-01
  6.26033432e-01  6.29477590e-01  6.70893805e-01  6.75268556e-01
  7.09393271e-01  7.26180813e-01  8.01449395e-01  8.21306604e-01
  8.50483825e-01  8.65344982e-01  8.86349770e-01  8.95478820e-01
  9.04001116e-01  9.09787534e-01  9.16137132e-01  9.43601013e-01
  9.52932579e-01  9.91055420e-01  1.00658173e+00  1.01258269e+00
  1.04199338e+00  1.04370451e+00  1.04943818e+00  1.08955262e+00
  1.10298412e+00  1.14285233e+00  1.17721985e+00  1.23266318e+00
  1.28034732e+00  1.31360327e+00  1.40140667e+00  1.41510298e+00
  1.46352514e+00  1.50489105e+00  1.51053981e+00  1.52978402e+00
  1.56179870e+00  1.58146070e+00  1.73465855e+00  1.73507817e+00
  1.74166576e+00  1.81159262e+00  1.87651192e+00  1.89282443e+00
  1.96650818e+00  1.97893308e+00  2.10599690e+00  2.16529946e+00
  2.17049100e+00  2.20089011e+00  2.20243021e+00  2.20768523e+00
  2.25860192e+00  2.26058830e+00  2.28154751e+00  2.32591741e+00
  2.36852252e+00  2.39973094e+00  2.58180936e+00  2.58420466e+00
  2.69684154e+00  2.73328049e+00  2.73890592e+00  2.76445826e+00
  2.82291446e+00  2.82934891e+00  3.08496441e+00  3.45644278e+00]
nelec by numeric integration = 68.00004084780353
    CPU time for vxc      6.01 sec, wall time      0.22 sec
E1 = -1776.9332991475612  Ecoul = 717.469144139882  Exc = -70.23325748440632
cycle= 2 E= -748.073031807059  delta_E= -0.00304  |g|=  0.4  |ddm|= 1.02
    CPU time for cycle= 2      6.50 sec, wall time      0.23 sec
  HOMO = -0.25271668802639  LUMO = -0.0367049538139478
  mo_energy =
[-1.01456704e+02 -1.43552209e+01 -1.02184462e+01 -1.02180902e+01
 -1.02127733e+01 -1.02064048e+01 -1.02061808e+01 -1.01961909e+01
 -9.38975373e+00 -7.15223457e+00 -7.14331359e+00 -7.14330377e+00
 -9.67942455e-01 -8.19387513e-01 -7.87275409e-01 -7.80150425e-01
 -6.50734488e-01 -6.49660747e-01 -6.35998656e-01 -5.43786250e-01
 -4.96063616e-01 -4.86155309e-01 -4.49287789e-01 -4.27568398e-01
 -4.20033716e-01 -4.15359728e-01 -4.07758427e-01 -3.84004214e-01
 -3.55780407e-01 -3.04224698e-01 -2.78143703e-01 -2.54222817e-01
 -2.53049055e-01 -2.52716688e-01 -3.67049538e-02 -2.42372667e-02
  5.52712250e-02  8.92621566e-02  1.15598342e-01  1.22975454e-01
  1.34770875e-01  1.46242302e-01  1.53064898e-01  1.71538904e-01
  1.74756688e-01  2.07136953e-01  2.53463245e-01  2.82017060e-01
  3.11967434e-01  3.13793987e-01  4.32936754e-01  4.42774092e-01
  4.50590810e-01  4.96223251e-01  4.96449369e-01  4.99454380e-01
  5.06141827e-01  5.27808809e-01  5.47274740e-01  5.69598889e-01
  5.74042435e-01  5.83513331e-01  5.86042634e-01  5.96442100e-01
  5.97428990e-01  6.00077776e-01  6.43558572e-01  6.45899397e-01
  6.77856060e-01  7.02438879e-01  7.77084287e-01  8.08330986e-01
  8.19285529e-01  8.40224186e-01  8.49674537e-01  8.62813506e-01
  8.81348085e-01  8.84812300e-01  8.96300495e-01  9.16864913e-01
  9.25195220e-01  9.45548135e-01  9.51044156e-01  9.80796400e-01
  9.90864865e-01  1.00039341e+00  1.02165495e+00  1.06371758e+00
  1.07963200e+00  1.12156694e+00  1.15596663e+00  1.20418918e+00
  1.23666613e+00  1.27960904e+00  1.36223870e+00  1.38676064e+00
  1.44591943e+00  1.45684245e+00  1.47053354e+00  1.49855526e+00
  1.51458096e+00  1.55094682e+00  1.70322482e+00  1.71540531e+00
  1.71789866e+00  1.78130469e+00  1.83301125e+00  1.84763996e+00
  1.92431623e+00  1.94693912e+00  2.06397130e+00  2.12222416e+00
  2.13194948e+00  2.15541813e+00  2.16811779e+00  2.17638706e+00
  2.22207966e+00  2.24956898e+00  2.26955276e+00  2.29011679e+00
  2.32044688e+00  2.35873608e+00  2.54136418e+00  2.54502253e+00
  2.65534040e+00  2.68697671e+00  2.69745615e+00  2.72388537e+00
  2.77656213e+00  2.77871682e+00  3.03946974e+00  3.41237964e+00]
nelec by numeric integration = 68.00003888824567
    CPU time for vxc      5.78 sec, wall time      0.21 sec
E1 = -1780.5981100389356  Ecoul = 721.3653384461912  Exc = -70.50554288387097
cycle= 3 E= -748.113933791589  delta_E= -0.0409  |g|= 0.0727  |ddm|= 0.491
    CPU time for cycle= 3      6.28 sec, wall time      0.22 sec
  HOMO = -0.252249085344913  LUMO = -0.0364608899180347
  mo_energy =
[-1.01479177e+02 -1.43311736e+01 -1.02362971e+01 -1.02361571e+01
 -1.02192790e+01 -1.02159938e+01 -1.02106019e+01 -1.02104264e+01
 -9.40911119e+00 -7.17184630e+00 -7.16299980e+00 -7.16298995e+00
 -9.64361113e-01 -8.19657983e-01 -7.96994171e-01 -7.83710856e-01
 -6.56906031e-01 -6.51003398e-01 -6.40539260e-01 -5.45940497e-01
 -4.98135654e-01 -4.87947600e-01 -4.52569147e-01 -4.30597079e-01
 -4.21886020e-01 -4.20705942e-01 -4.10463798e-01 -3.85695241e-01
 -3.64282336e-01 -3.02794548e-01 -2.81709563e-01 -2.62880800e-01
 -2.62283980e-01 -2.52249085e-01 -3.64608899e-02 -2.71168949e-02
  4.85471124e-02  8.78824782e-02  1.12979297e-01  1.21010688e-01
  1.33779422e-01  1.45018173e-01  1.52592056e-01  1.70855950e-01
  1.71467448e-01  2.04977832e-01  2.52706206e-01  2.81059181e-01
  3.11345129e-01  3.12425017e-01  4.31266350e-01  4.35741587e-01
  4.47785861e-01  4.89484975e-01  4.89503074e-01  4.96819385e-01
  5.00783030e-01  5.27076209e-01  5.43218481e-01  5.67442499e-01
  5.71570920e-01  5.79620740e-01  5.84740928e-01  5.93900668e-01
  5.94737000e-01  5.97474814e-01  6.43144891e-01  6.43370262e-01
  6.76973205e-01  6.97829255e-01  7.74263765e-01  8.04800815e-01
  8.18390428e-01  8.38510747e-01  8.53431954e-01  8.58473409e-01
  8.76406912e-01  8.80074315e-01  8.88740716e-01  9.14312177e-01
  9.19533411e-01  9.38001848e-01  9.41231759e-01  9.77203754e-01
  9.82461320e-01  9.92722875e-01  1.02103939e+00  1.05999606e+00
  1.07625325e+00  1.12077683e+00  1.15508353e+00  1.20371087e+00
  1.23469480e+00  1.27379728e+00  1.36021046e+00  1.38824847e+00
  1.44552343e+00  1.45592124e+00  1.46724284e+00  1.49521636e+00
  1.51585453e+00  1.55154808e+00  1.70350250e+00  1.70764356e+00
  1.70908258e+00  1.78034817e+00  1.83023680e+00  1.84862201e+00
  1.92428214e+00  1.94387206e+00  2.06088205e+00  2.11964334e+00
  2.12930461e+00  2.15481790e+00  2.16451854e+00  2.17058779e+00
  2.21900078e+00  2.24209103e+00  2.26225969e+00  2.28594081e+00
  2.32001328e+00  2.35833786e+00  2.54080954e+00  2.54218042e+00
  2.65351712e+00  2.68523418e+00  2.69579100e+00  2.72039841e+00
  2.77615500e+00  2.77692834e+00  3.03844957e+00  3.41014956e+00]
nelec by numeric integration = 68.00003899879073
    CPU time for vxc      5.77 sec, wall time      0.21 sec
E1 = -1780.8623340562278  Ecoul = 721.647568459128  Exc = -70.52451649399354
cycle= 4 E= -748.114901406067  delta_E= -0.000968  |g|= 0.0308  |ddm|= 0.0808
    CPU time for cycle= 4      6.30 sec, wall time      0.23 sec
  HOMO = -0.254439406964491  LUMO = -0.0354987720547841
  mo_energy =
[-1.01471478e+02 -1.43397171e+01 -1.02327346e+01 -1.02326557e+01
 -1.02150291e+01 -1.02150223e+01 -1.02056723e+01 -1.02056323e+01
 -9.40340436e+00 -7.16591553e+00 -7.15711842e+00 -7.15710856e+00
 -9.64616350e-01 -8.17180511e-01 -7.95412245e-01 -7.81491058e-01
 -6.56630187e-01 -6.50074365e-01 -6.38746858e-01 -5.44439928e-01
 -4.96536158e-01 -4.86542398e-01 -4.50711796e-01 -4.30984253e-01
 -4.22022175e-01 -4.19623810e-01 -4.09938073e-01 -3.84204754e-01
 -3.63185304e-01 -3.01636483e-01 -2.79357188e-01 -2.61504746e-01
 -2.60911228e-01 -2.54439407e-01 -3.54987721e-02 -2.51076692e-02
  4.92966075e-02  8.88687796e-02  1.12863902e-01  1.21502702e-01
  1.35067982e-01  1.45306122e-01  1.53325424e-01  1.70862106e-01
  1.71584227e-01  2.04928021e-01  2.53887426e-01  2.82726451e-01
  3.12354796e-01  3.13493908e-01  4.32006279e-01  4.36562341e-01
  4.49275235e-01  4.90246305e-01  4.90278363e-01  4.98683532e-01
  5.01741647e-01  5.28175295e-01  5.43768903e-01  5.68853754e-01
  5.73521423e-01  5.80488745e-01  5.86940196e-01  5.95372240e-01
  5.96713314e-01  5.99464528e-01  6.42688256e-01  6.44809646e-01
  6.78872236e-01  6.98465673e-01  7.75021094e-01  8.06026818e-01
  8.20520517e-01  8.40174770e-01  8.51544535e-01  8.58156505e-01
  8.76905665e-01  8.81015784e-01  8.89268392e-01  9.16024264e-01
  9.21060916e-01  9.39673630e-01  9.42589786e-01  9.78327234e-01
  9.83552939e-01  9.93800818e-01  1.02094747e+00  1.06056919e+00
  1.07733128e+00  1.12169159e+00  1.15680014e+00  1.20466403e+00
  1.23656697e+00  1.27396590e+00  1.36235231e+00  1.38864027e+00
  1.44613827e+00  1.45821443e+00  1.47004835e+00  1.49674902e+00
  1.51571352e+00  1.55035837e+00  1.70415437e+00  1.70770170e+00
  1.70886033e+00  1.78100941e+00  1.83253804e+00  1.84888279e+00
  1.92625107e+00  1.94603880e+00  2.06350445e+00  2.12195627e+00
  2.13151713e+00  2.15700493e+00  2.16574682e+00  2.17131133e+00
  2.21989249e+00  2.24170947e+00  2.26188746e+00  2.28822384e+00
  2.32152681e+00  2.35897567e+00  2.54221964e+00  2.54433609e+00
  2.65556245e+00  2.68690903e+00  2.69662232e+00  2.72242329e+00
  2.77766062e+00  2.77834263e+00  3.03886954e+00  3.41156720e+00]
nelec by numeric integration = 68.00003898169865
    CPU time for vxc      5.74 sec, wall time      0.20 sec
E1 = -1780.7770071420682  Ecoul = 721.5565036198815  Exc = -70.51897139028348
cycle= 5 E= -748.115094227443  delta_E= -0.000193  |g|= 0.0106  |ddm|= 0.0366
    CPU time for cycle= 5      6.22 sec, wall time      0.22 sec
  HOMO = -0.252808081659013  LUMO = -0.0349974203144417
  mo_energy =
[-1.01469696e+02 -1.43362359e+01 -1.02303890e+01 -1.02303807e+01
 -1.02164037e+01 -1.02118585e+01 -1.02068908e+01 -1.02068557e+01
 -9.40208310e+00 -7.16455018e+00 -7.15574983e+00 -7.15573986e+00
 -9.62977982e-01 -8.17418141e-01 -7.94651691e-01 -7.80865358e-01
 -6.55558294e-01 -6.49440578e-01 -6.38365915e-01 -5.44157493e-01
 -4.96035561e-01 -4.86468311e-01 -4.50348926e-01 -4.29810961e-01
 -4.21009866e-01 -4.19470429e-01 -4.09030705e-01 -3.84057213e-01
 -3.62364799e-01 -3.01427670e-01 -2.78980938e-01 -2.61019356e-01
 -2.60425849e-01 -2.52808082e-01 -3.49974203e-02 -2.47266161e-02
  5.02779874e-02  8.89855157e-02  1.13439818e-01  1.21960890e-01
  1.35521577e-01  1.45649891e-01  1.53441740e-01  1.71644487e-01
  1.71685890e-01  2.05585380e-01  2.54242502e-01  2.82684872e-01
  3.12829685e-01  3.13916888e-01  4.32445879e-01  4.36939393e-01
  4.49663619e-01  4.90658281e-01  4.90665414e-01  4.99013475e-01
  5.02162673e-01  5.28523418e-01  5.44308912e-01  5.69331436e-01
  5.73777340e-01  5.81196436e-01  5.86750804e-01  5.95707849e-01
  5.96777360e-01  5.99404585e-01  6.43905084e-01  6.45162310e-01
  6.78641267e-01  6.99513602e-01  7.75864972e-01  8.06665175e-01
  8.19949608e-01  8.40121021e-01  8.53063001e-01  8.59250130e-01
  8.77734089e-01  8.81500589e-01  8.90179612e-01  9.16032245e-01
  9.21494419e-01  9.40044768e-01  9.43281397e-01  9.78772665e-01
  9.84346753e-01  9.94482857e-01  1.02191468e+00  1.06126445e+00
  1.07778812e+00  1.12216790e+00  1.15666590e+00  1.20500801e+00
  1.23698992e+00  1.27477377e+00  1.36263782e+00  1.38906132e+00
  1.44669386e+00  1.45810905e+00  1.46994323e+00  1.49777754e+00
  1.51688558e+00  1.55158509e+00  1.70488406e+00  1.70911751e+00
  1.71041847e+00  1.78171713e+00  1.83268141e+00  1.84974248e+00
  1.92608467e+00  1.94643663e+00  2.06370173e+00  2.12218330e+00
  2.13191126e+00  2.15688739e+00  2.16674217e+00  2.17244122e+00
  2.22090992e+00  2.24312519e+00  2.26331318e+00  2.28873219e+00
  2.32169478e+00  2.35999707e+00  2.54276395e+00  2.54469762e+00
  2.65582425e+00  2.68737475e+00  2.69750801e+00  2.72298425e+00
  2.77802354e+00  2.77888579e+00  3.03999442e+00  3.41219314e+00]
nelec by numeric integration = 68.00003900484914
    CPU time for vxc      5.79 sec, wall time      0.21 sec
E1 = -1780.718115225617  Ecoul = 721.4938193659452  Exc = -70.51520403643059
cycle= 6 E= -748.115119211076  delta_E= -2.5e-05  |g|= 0.00456  |ddm|= 0.0155
    CPU time for cycle= 6      6.29 sec, wall time      0.22 sec
  HOMO = -0.253161707746129  LUMO = -0.0350366159186872
  mo_energy =
[-1.01469654e+02 -1.43370208e+01 -1.02313023e+01 -1.02312958e+01
 -1.02155360e+01 -1.02123364e+01 -1.02064863e+01 -1.02064596e+01
 -9.40208372e+00 -7.16454381e+00 -7.15574615e+00 -7.15573617e+00
 -9.63551683e-01 -8.17262933e-01 -7.94848508e-01 -7.81074974e-01
 -6.55697481e-01 -6.49557816e-01 -6.38398951e-01 -5.44177687e-01
 -4.96139451e-01 -4.86418935e-01 -4.50483436e-01 -4.30091916e-01
 -4.21207481e-01 -4.19416417e-01 -4.09277161e-01 -3.84039581e-01
 -3.62510048e-01 -3.01392948e-01 -2.79125998e-01 -2.61117745e-01
 -2.60524711e-01 -2.53161708e-01 -3.50366159e-02 -2.48327069e-02
  5.00955648e-02  8.90384310e-02  1.13348851e-01  1.21868206e-01
  1.35465312e-01  1.45611552e-01  1.53495586e-01  1.71482995e-01
  1.71697287e-01  2.05438710e-01  2.54161054e-01  2.82774615e-01
  3.12745542e-01  3.13849949e-01  4.32373996e-01  4.36935557e-01
  4.49551361e-01  4.90555905e-01  4.90559590e-01  4.98924292e-01
  5.01978668e-01  5.28484202e-01  5.44208200e-01  5.69214238e-01
  5.73703822e-01  5.81037880e-01  5.86841126e-01  5.95674638e-01
  5.96787045e-01  5.99486140e-01  6.43606539e-01  6.45066620e-01
  6.78799381e-01  6.99257954e-01  7.75660316e-01  8.06497060e-01
  8.20248705e-01  8.40184101e-01  8.52722587e-01  8.59055520e-01
  8.77601732e-01  8.81459583e-01  8.89992953e-01  9.16121766e-01
  9.21439422e-01  9.40019946e-01  9.43154802e-01  9.78728765e-01
  9.84210559e-01  9.94375565e-01  1.02169626e+00  1.06113527e+00
  1.07770489e+00  1.12206533e+00  1.15676377e+00  1.20495502e+00
  1.23689687e+00  1.27459176e+00  1.36255133e+00  1.38900544e+00
  1.44657574e+00  1.45819788e+00  1.47003342e+00  1.49741678e+00
  1.51656504e+00  1.55130455e+00  1.70470833e+00  1.70882350e+00
  1.71010424e+00  1.78156773e+00  1.83268952e+00  1.84956412e+00
  1.92620605e+00  1.94629172e+00  2.06365170e+00  2.12214532e+00
  2.13177094e+00  2.15699762e+00  2.16648290e+00  2.17219063e+00
  2.22065675e+00  2.24283751e+00  2.26301759e+00  2.28858008e+00
  2.32176958e+00  2.35969100e+00  2.54262924e+00  2.54458942e+00
  2.65577898e+00  2.68728969e+00  2.69731649e+00  2.72284497e+00
  2.77801932e+00  2.77877546e+00  3.03972783e+00  3.41209225e+00]
nelec by numeric integration = 68.00003900284324
    CPU time for vxc      5.97 sec, wall time      0.21 sec
E1 = -1780.7321742737472  Ecoul = 721.5083894835886  Exc = -70.51572088793115
cycle= 7 E= -748.115124993063  delta_E= -5.78e-06  |g|= 0.000557  |ddm|= 0.00496
    CPU time for cycle= 7      6.50 sec, wall time      0.23 sec
  HOMO = -0.253144623727166  LUMO = -0.0350325057565816
  mo_energy =
[-1.01469847e+02 -1.43369750e+01 -1.02312192e+01 -1.02311977e+01
 -1.02156947e+01 -1.02125665e+01 -1.02063928e+01 -1.02063766e+01
 -9.40222564e+00 -7.16469254e+00 -7.15589226e+00 -7.15588229e+00
 -9.63515515e-01 -8.17275333e-01 -7.94917056e-01 -7.81029739e-01
 -6.55750750e-01 -6.49537607e-01 -6.38390637e-01 -5.44172349e-01
 -4.96117302e-01 -4.86398655e-01 -4.50452537e-01 -4.30119494e-01
 -4.21256168e-01 -4.19443029e-01 -4.09278827e-01 -3.84030202e-01
 -3.62566284e-01 -3.01400990e-01 -2.79087386e-01 -2.61169397e-01
 -2.60575976e-01 -2.53144624e-01 -3.50325058e-02 -2.48021462e-02
  5.00394299e-02  8.90192706e-02  1.13337303e-01  1.21877682e-01
  1.35484000e-01  1.45607372e-01  1.53491555e-01  1.71458291e-01
  1.71696780e-01  2.05434809e-01  2.54165351e-01  2.82774772e-01
  3.12763609e-01  3.13866489e-01  4.32378281e-01  4.36898051e-01
  4.49566555e-01  4.90519797e-01  4.90523318e-01  4.98938495e-01
  5.01949896e-01  5.28492351e-01  5.44178950e-01  5.69240322e-01
  5.73731672e-01  5.81028276e-01  5.86837454e-01  5.95654965e-01
  5.96786165e-01  5.99481446e-01  6.43613580e-01  6.45092327e-01
  6.78793130e-01  6.99274163e-01  7.75661894e-01  8.06524376e-01
  8.20222910e-01  8.40203481e-01  8.52737097e-01  8.59036901e-01
  8.77574975e-01  8.81423125e-01  8.89938539e-01  9.16109785e-01
  9.21420572e-01  9.39981664e-01  9.43097729e-01  9.78721371e-01
  9.84158275e-01  9.94329772e-01  1.02171210e+00  1.06111008e+00
  1.07770298e+00  1.12206955e+00  1.15676322e+00  1.20496688e+00
  1.23691720e+00  1.27455062e+00  1.36257079e+00  1.38900845e+00
  1.44659071e+00  1.45820423e+00  1.47003625e+00  1.49746031e+00
  1.51659015e+00  1.55131220e+00  1.70472547e+00  1.70875383e+00
  1.71001581e+00  1.78157543e+00  1.83269009e+00  1.84957943e+00
  1.92619790e+00  1.94632622e+00  2.06366746e+00  2.12216440e+00
  2.13180250e+00  2.15699186e+00  2.16648687e+00  2.17216035e+00
  2.22065618e+00  2.24276258e+00  2.26294658e+00  2.28862029e+00
  2.32176505e+00  2.35972015e+00  2.54264334e+00  2.54461665e+00
  2.65579233e+00  2.68731295e+00  2.69734607e+00  2.72288128e+00
  2.77802795e+00  2.77879373e+00  3.03976062e+00  3.41211783e+00]
nelec by numeric integration = 68.00003900924293
    CPU time for vxc      8.72 sec, wall time      0.34 sec
E1 = -1780.7331651648824  Ecoul = 721.5094873098693  Exc = -70.5158279004757
cycle= 8 E= -748.115125070462  delta_E= -7.74e-08  |g|= 0.000195  |ddm|= 0.000683
    CPU time for cycle= 8      9.27 sec, wall time      0.36 sec
  HOMO = -0.253146447211093  LUMO = -0.0350279720562743
  mo_energy =
[-1.01469886e+02 -1.43369756e+01 -1.02312112e+01 -1.02311980e+01
 -1.02156396e+01 -1.02125202e+01 -1.02064205e+01 -1.02063968e+01
 -9.40224749e+00 -7.16471744e+00 -7.15591525e+00 -7.15590528e+00
 -9.63516846e-01 -8.17270086e-01 -7.94907281e-01 -7.81034681e-01
 -6.55740207e-01 -6.49540408e-01 -6.38388515e-01 -5.44169331e-01
 -4.96117484e-01 -4.86406733e-01 -4.50457513e-01 -4.30107541e-01
 -4.21240372e-01 -4.19432612e-01 -4.09273395e-01 -3.84031890e-01
 -3.62561286e-01 -3.01395797e-01 -2.79092945e-01 -2.61169057e-01
 -2.60575535e-01 -2.53146447e-01 -3.50279721e-02 -2.48073569e-02
  5.00494736e-02  8.90218964e-02  1.13343103e-01  1.21877587e-01
  1.35483114e-01  1.45609296e-01  1.53492726e-01  1.71469507e-01
  1.71695885e-01  2.05439820e-01  2.54166603e-01  2.82776417e-01
  3.12761543e-01  3.13864172e-01  4.32378417e-01  4.36891241e-01
  4.49564897e-01  4.90521951e-01  4.90524906e-01  4.98938686e-01
  5.01955964e-01  5.28492360e-01  5.44187325e-01  5.69235529e-01
  5.73727017e-01  5.81033501e-01  5.86838321e-01  5.95663715e-01
  5.96789687e-01  5.99483270e-01  6.43616127e-01  6.45088631e-01
  6.78794329e-01  6.99275722e-01  7.75665954e-01  8.06521999e-01
  8.20230213e-01  8.40195973e-01  8.52737581e-01  8.59041563e-01
  8.77580725e-01  8.81429250e-01  8.89948717e-01  9.16112147e-01
  9.21422750e-01  9.39983697e-01  9.43101262e-01  9.78724930e-01
  9.84158107e-01  9.94331139e-01  1.02171202e+00  1.06111567e+00
  1.07770326e+00  1.12207060e+00  1.15676229e+00  1.20496460e+00
  1.23691660e+00  1.27455662e+00  1.36256984e+00  1.38900888e+00
  1.44658878e+00  1.45820251e+00  1.47004028e+00  1.49745761e+00
  1.51658949e+00  1.55131544e+00  1.70472398e+00  1.70877427e+00
  1.71004063e+00  1.78157805e+00  1.83269348e+00  1.84958075e+00
  1.92620046e+00  1.94632123e+00  2.06366915e+00  2.12216321e+00
  2.13179874e+00  2.15699486e+00  2.16649182e+00  2.17217182e+00
  2.22066211e+00  2.24278554e+00  2.26296877e+00  2.28861504e+00
  2.32176925e+00  2.35971912e+00  2.54264467e+00  2.54461429e+00
  2.65579291e+00  2.68731173e+00  2.69734418e+00  2.72287736e+00
  2.77803032e+00  2.77879508e+00  3.03976007e+00  3.41211698e+00]
nelec by numeric integration = 68.00003900889381
    CPU time for vxc      5.78 sec, wall time      0.21 sec
E1 = -1780.7329599315535  Ecoul = 721.5092734796693  Exc = -70.51581931240956
cycle= 9 E= -748.115125079267  delta_E= -8.81e-09  |g|= 5.19e-05  |ddm|= 0.000198
    CPU time for cycle= 9      6.29 sec, wall time      0.22 sec
  HOMO = -0.253151340903407  LUMO = -0.035034361325203
  mo_energy =
[-1.01469851e+02 -1.43369848e+01 -1.02312221e+01 -1.02312031e+01
 -1.02156569e+01 -1.02125135e+01 -1.02064243e+01 -1.02064062e+01
 -9.40221852e+00 -7.16468790e+00 -7.15588574e+00 -7.15587577e+00
 -9.63523341e-01 -8.17277301e-01 -7.94897240e-01 -7.81040258e-01
 -6.55737204e-01 -6.49546223e-01 -6.38392825e-01 -5.44174327e-01
 -4.96124196e-01 -4.86410442e-01 -4.50461652e-01 -4.30109372e-01
 -4.21240960e-01 -4.19437428e-01 -4.09277155e-01 -3.84037161e-01
 -3.62554352e-01 -3.01402158e-01 -2.79097941e-01 -2.61156591e-01
 -2.60563308e-01 -2.53151341e-01 -3.50343613e-02 -2.48124446e-02
  5.00545976e-02  8.90202193e-02  1.13341386e-01  1.21875426e-01
  1.35477480e-01  1.45607103e-01  1.53489770e-01  1.71468674e-01
  1.71693973e-01  2.05437557e-01  2.54162372e-01  2.82771735e-01
  3.12756576e-01  3.13859914e-01  4.32375909e-01  4.36901242e-01
  4.49561824e-01  4.90529867e-01  4.90533290e-01  4.98934422e-01
  5.01961234e-01  5.28487608e-01  5.44187248e-01  5.69231331e-01
  5.73723078e-01  5.81032144e-01  5.86833306e-01  5.95660096e-01
  5.96784441e-01  5.99479144e-01  6.43612281e-01  6.45084697e-01
  6.78789590e-01  6.99272878e-01  7.75662257e-01  8.06518601e-01
  8.20224571e-01  8.40192637e-01  8.52734031e-01  8.59042076e-01
  8.77581399e-01  8.81430621e-01  8.89954292e-01  9.16109348e-01
  9.21424868e-01  9.39989583e-01  9.43112671e-01  9.78722850e-01
  9.84168566e-01  9.94338901e-01  1.02170819e+00  1.06111602e+00
  1.07770187e+00  1.12206680e+00  1.15675834e+00  1.20496029e+00
  1.23691002e+00  1.27456176e+00  1.36256388e+00  1.38900413e+00
  1.44658473e+00  1.45819592e+00  1.47003352e+00  1.49745221e+00
  1.51658300e+00  1.55131113e+00  1.70471848e+00  1.70877462e+00
  1.71004223e+00  1.78157297e+00  1.83268755e+00  1.84957438e+00
  1.92619448e+00  1.94631620e+00  2.06366265e+00  2.12215713e+00
  2.13179309e+00  2.15698786e+00  2.16648790e+00  2.17217017e+00
  2.22065764e+00  2.24278581e+00  2.26296887e+00  2.28860958e+00
  2.32176180e+00  2.35971300e+00  2.54263811e+00  2.54460877e+00
  2.65578657e+00  2.68730517e+00  2.69733767e+00  2.72287130e+00
  2.77802343e+00  2.77878793e+00  3.03975341e+00  3.41211030e+00]
nelec by numeric integration = 68.000039008607
    CPU time for vxc      5.82 sec, wall time      0.21 sec
E1 = -1780.732869351301  Ecoul = 721.5091742780987  Exc = -70.51581069184991
cycle= 10 E= -748.115125080025  delta_E= -7.58e-10  |g|= 1.68e-05  |ddm|= 9.45e-05
    CPU time for cycle= 10      6.31 sec, wall time      0.23 sec
  HOMO = -0.253150971159527  LUMO = -0.0350320583820629
  mo_energy =
[-1.01469869e+02 -1.43369857e+01 -1.02312125e+01 -1.02312011e+01
 -1.02156508e+01 -1.02125101e+01 -1.02064260e+01 -1.02064005e+01
 -9.40223361e+00 -7.16470332e+00 -7.15590107e+00 -7.15589111e+00
 -9.63520984e-01 -8.17274750e-01 -7.94902447e-01 -7.81037626e-01
 -6.55737566e-01 -6.49543940e-01 -6.38390782e-01 -5.44171985e-01
 -4.96121542e-01 -4.86408748e-01 -4.50459406e-01 -4.30107957e-01
 -4.21239818e-01 -4.19435547e-01 -4.09275282e-01 -3.84034894e-01
 -3.62557190e-01 -3.01400006e-01 -2.79095497e-01 -2.61162690e-01
 -2.60569303e-01 -2.53150971e-01 -3.50320584e-02 -2.48101189e-02
  5.00529001e-02  8.90209843e-02  1.13342619e-01  1.21876651e-01
  1.35479704e-01  1.45608187e-01  1.53491139e-01  1.71469386e-01
  1.71694366e-01  2.05439201e-01  2.54164090e-01  2.82773618e-01
  3.12758804e-01  3.13861397e-01  4.32376904e-01  4.36897529e-01
  4.49563298e-01  4.90526062e-01  4.90529194e-01  4.98936501e-01
  5.01957730e-01  5.28489322e-01  5.44187493e-01  5.69233399e-01
  5.73724896e-01  5.81032899e-01  5.86835556e-01  5.95661956e-01
  5.96786776e-01  5.99480766e-01  6.43613617e-01  6.45086589e-01
  6.78791384e-01  6.99274540e-01  7.75664482e-01  8.06520583e-01
  8.20226666e-01  8.40193971e-01  8.52734446e-01  8.59042106e-01
  8.77581444e-01  8.81430083e-01  8.89952131e-01  9.16110436e-01
  9.21423877e-01  9.39986756e-01  9.43107203e-01  9.78723793e-01
  9.84163456e-01  9.94335346e-01  1.02170972e+00  1.06111607e+00
  1.07770265e+00  1.12206855e+00  1.15675997e+00  1.20496201e+00
  1.23691266e+00  1.27455905e+00  1.36256651e+00  1.38900560e+00
  1.44658659e+00  1.45819829e+00  1.47003646e+00  1.49745513e+00
  1.51658513e+00  1.55131262e+00  1.70472038e+00  1.70877588e+00
  1.71004326e+00  1.78157518e+00  1.83269010e+00  1.84957655e+00
  1.92619666e+00  1.94631871e+00  2.06366557e+00  2.12215973e+00
  2.13179571e+00  2.15699036e+00  2.16649019e+00  2.17217124e+00
  2.22065993e+00  2.24278745e+00  2.26297054e+00  2.28861227e+00
  2.32176430e+00  2.35971544e+00  2.54264079e+00  2.54461115e+00
  2.65578921e+00  2.68730767e+00  2.69734013e+00  2.72287404e+00
  2.77802557e+00  2.77879095e+00  3.03975594e+00  3.41211294e+00]
nelec by numeric integration = 68.0000390087562
    CPU time for vxc      5.77 sec, wall time      0.21 sec
E1 = -1780.732944969755  Ecoul = 721.5092560662579  Exc = -70.51581686149255
Extra cycle  E= -748.115125079963  delta_E= 6.23e-11  |g|= 2.24e-05  |ddm|= 4.56e-05
    CPU time for scf_cycle     88.36 sec, wall time      3.26 sec
    CPU time for SCF     88.36 sec, wall time      3.26 sec
converged SCF energy = -748.115125079963
Converting <class 'pyscf.dft.rks.RKS'> to RHF


******** <class 'pyscf.tdscf.rks.TDA'> for <class 'pyscf.dft.rks.RKS'> ********
nstates = 10 singlet
wfnsym = None
conv_tol = 1e-09
eigh lindep = 1e-12
eigh level_shift = 0
eigh max_space = 50
eigh max_cycle = 100
chkfile = /scratch/global/yangjunjie/tmpihsm5g9m
max_memory 256000 MB (current use 600 MB)


davidson 0 10  |r|= 0.25  e= [0.17581937 0.18092705 0.20617867 0.20640566 0.2137404  0.21673842
 0.22112577 0.28073981 0.3640461  0.37328128]  max|de|= 0.373  lindep=    1
davidson 1 20  |r|= 0.0533  e= [0.17284759 0.1796575  0.20603228 0.20603742 0.21163015 0.21667072
 0.21863593 0.25074709 0.30286009 0.30307961]  max|de|= -0.0702  lindep= 0.87
Old state -> New state
    3     ->     2 
    2     ->     3 
    9     ->     8 
    8     ->     9 
davidson 2 30  |r|= 0.0413  e= [0.17269705 0.1796231  0.20599873 0.2060315  0.21154798 0.2166689
 0.21854246 0.25037723 0.29650601 0.30051739]  max|de|= -0.00657  lindep= 0.812
davidson 3 40  |r|= 0.0453  e= [0.17269528 0.17962239 0.2059978  0.20603146 0.21154378 0.21666879
 0.21853969 0.25029081 0.28721011 0.29998202]  max|de|= -0.0093  lindep= 0.82
Old state -> New state
    5     ->     9 
davidson 4 50  |r|= 0.104  e= [0.17269525 0.17962238 0.20599767 0.20603146 0.21154364 0.21666878
 0.21853957 0.25027922 0.28054068 0.29135748]  max|de|= 0.0747  lindep= 0.774
Old state -> New state
    9     ->     8 
    8     ->     9 
root 0 converged  |r|= 1.52e-06  e= 0.17269524593338567  max|de|= -4.77e-10
root 1 converged  |r|= 1.13e-06  e= 0.17962237886995897  max|de|= -1.95e-10
root 3 converged  |r|= 2.11e-06  e= 0.20603145961888633  max|de|= -2.18e-10
davidson 5 60  |r|= 0.0753  e= [0.17269525 0.17962238 0.20599767 0.20603146 0.21154364 0.21666878
 0.21853956 0.25027752 0.27110524 0.27364592]  max|de|= -0.0203  lindep= 0.814
Old state -> New state
    9     ->     8 
    8     ->     9 
root 2 converged  |r|= 2.58e-06  e= 0.2059976667360714  max|de|= -2.51e-10
root 4 converged  |r|= 1.31e-06  e= 0.21154363959333286  max|de|= -5.56e-11
root 5 converged  |r|= 2.04e-06  e= 0.21666877555309888  max|de|= -1.11e-10
root 6 converged  |r|= 3.53e-06  e= 0.2185395599575946  max|de|= -5.51e-10
davidson 6 67  |r|= 0.027  e= [0.17269525 0.17962238 0.20599767 0.20603146 0.21154364 0.21666878
 0.21853956 0.25027718 0.26482978 0.26499269]  max|de|= -0.00882  lindep= 0.818
Old state -> New state
    9     ->     8 
    8     ->     9 
davidson 7 70  |r|= 0.00943  e= [0.17269525 0.17962238 0.20599767 0.20603146 0.21154364 0.21666878
 0.21853956 0.25027716 0.26386756 0.26432058]  max|de|= -0.00113  lindep= 0.808
davidson 8 10  |r|= 0.00943  e= [0.17269525 0.17962238 0.20599767 0.20603146 0.21154364 0.21666878
 0.21853956 0.25027716 0.26386756 0.26432058]  max|de|= -3.89e-16  lindep=    1
davidson 9 13  |r|= 0.00404  e= [0.17269525 0.17962238 0.20599767 0.20603146 0.21154364 0.21666878
 0.21853956 0.25027716 0.26377024 0.26427872]  max|de|= -9.73e-05  lindep= 0.722
root 7 converged  |r|= 2.21e-06  e= 0.2502771557091315  max|de|= -1.16e-10
davidson 10 16  |r|= 0.00119  e= [0.17269525 0.17962238 0.20599767 0.20603146 0.21154364 0.21666878
 0.21853956 0.25027716 0.26375544 0.26427077]  max|de|= -1.48e-05  lindep=  0.8
davidson 11 18  |r|= 0.000542  e= [0.17269525 0.17962238 0.20599767 0.20603146 0.21154364 0.21666878
 0.21853956 0.25027716 0.26375341 0.26426998]  max|de|= -2.03e-06  lindep= 0.818
davidson 12 20  |r|= 0.000209  e= [0.17269525 0.17962238 0.20599767 0.20603146 0.21154364 0.21666878
 0.21853956 0.25027716 0.26375304 0.26426988]  max|de|= -3.71e-07  lindep= 0.83
davidson 13 22  |r|= 6.22e-05  e= [0.17269525 0.17962238 0.20599767 0.20603146 0.21154364 0.21666878
 0.21853956 0.25027716 0.263753   0.26426987]  max|de|= -4.51e-08  lindep= 0.827
davidson 14 24  |r|= 3.16e-05  e= [0.17269525 0.17962238 0.20599767 0.20603146 0.21154364 0.21666878
 0.21853956 0.25027716 0.26375299 0.26426986]  max|de|= -7.59e-09  lindep= 0.829
davidson 15 26  |r|= 1.47e-05  e= [0.17269525 0.17962238 0.20599767 0.20603146 0.21154364 0.21666878
 0.21853956 0.25027716 0.26375299 0.26426986]  max|de|= -1.48e-09  lindep= 0.858
root 8 converged  |r|= 5.75e-06  e= 0.263752988196139  max|de|= -3.31e-10
root 9 converged  |r|= 9.16e-06  e= 0.26426986091453186  max|de|= -3.84e-10
converged 16 28  |r|= 9.16e-06  e= [0.17269525 0.17962238 0.20599767 0.20603146 0.21154364 0.21666878
 0.21853956 0.25027716 0.26375299 0.26426986]  max|de|= -3.84e-10
    CPU time for TDA    282.32 sec, wall time     10.26 sec
Excited State energies (eV)
[4.699277   4.88777389 5.60548203 5.60640158 5.75639564 5.89585769
 5.94676433 6.8103883  7.17708438 7.1911492 ]
Converting <class 'pyscf.dft.rks.RKS'> to RHF


******** <class 'pyscf.tdscf.rks.TDDFT'> for <class 'pyscf.dft.rks.RKS'> ********
nstates = 10 singlet
wfnsym = None
conv_tol = 1e-09
eigh lindep = 1e-12
eigh level_shift = 0
eigh max_space = 50
eigh max_cycle = 100
chkfile = /scratch/global/yangjunjie/tmpihsm5g9m
max_memory 256000 MB (current use 663 MB)


davidson 0 10  |r|= 0.393  e= [0.17581937 0.18092705 0.20617867 0.20640566 0.2137404  0.21673842
 0.22112577 0.28073981 0.3640461  0.37328128]  max|de|= 0.373  lindep=    1
Old state -> New state
    8     ->     0 
    9     ->     1 
    0     ->     2 
    1     ->     3 
    7     ->     4 
    2     ->     5 
    3     ->     6 
    4     ->     7 
    5     ->     8 
    6     ->     9 
davidson 1 20  |r|= 0.749  e= [0.04954077 0.0746592  0.16873667 0.17924632 0.19645878 0.20602552
 0.20608681 0.21025025 0.2166604  0.21793533]  max|de|= -0.315  lindep= 0.124
Old state -> New state
    3     ->     0 
    2     ->     3 
    3     ->     4 
    6     ->     5 
    5     ->     6 
davidson 2 30  |r|= 1.63  e= [0.00604144 0.04100866 0.15671668 0.16531169 0.17931558 0.20581483
 0.20602785 0.20996234 0.21666343 0.21768258]  max|de|= -0.173  lindep= 0.0666
Old state -> New state
    3     ->     0 
    3     ->     1 
    4     ->     2 
    5     ->     3 
    6     ->     4 
    7     ->     5 
    8     ->     6 
    9     ->     7 
    1     ->     8 
    0     ->     9 
davidson 3 40  |r|= 1.05  e= [0.16044736 0.17154106 0.17933081 0.20584776 0.20602833 0.2100747
 0.2166681  0.21775932 0.24040013 0.25560046]  max|de|= 0.25  lindep= 0.196
Old state -> New state
    1     ->     9 
davidson 4 50  |r|= 1.05  e= [0.16132681 0.17125258 0.17934322 0.2058448  0.20602727 0.20999435
 0.2166657  0.21772611 0.24092577 0.24800625]  max|de|= 0.0765  lindep= 0.0134
Old state -> New state
    5     ->     6 
    6     ->     7 
    7     ->     8 
    8     ->     9 
davidson 5 60  |r|= 1.15  e= [0.02708706 0.17106519 0.1794171  0.20585284 0.20602867 0.2067982
 0.20971907 0.21666557 0.21767414 0.24059103]  max|de|= -0.134  lindep= 0.0725
Old state -> New state
    5     ->     0 
    0     ->     1 
    0     ->     2 
    1     ->     3 
    2     ->     4 
    3     ->     5 
    4     ->     6 
    6     ->     7 
    7     ->     8 
    8     ->     9 
davidson 6 70  |r|= 1.33  e= [0.02778391 0.06160709 0.158056   0.17105474 0.17940741 0.20584707
 0.2060285  0.21004246 0.2166656  0.21774808]  max|de|= -0.179  lindep= 0.0726
Old state -> New state
    0     ->     1 
    3     ->     2 
    4     ->     3 
    5     ->     4 
    6     ->     5 
    7     ->     6 
    8     ->     7 
    9     ->     8 
    8     ->     9 
davidson 7 80  |r|= 1.46  e= [0.01909896 0.15504436 0.17106402 0.17941945 0.20584693 0.20602874
 0.21004241 0.21666553 0.21774842 0.21778209]  max|de|= 0.127  lindep= 0.0303
davidson 8 10  |r|= 1.46  e= [0.01909896 0.15504436 0.17106402 0.17941945 0.20584693 0.20602874
 0.21004241 0.21666553 0.21774842 0.21778209]  max|de|= 1.78e-15  lindep= 0.332
Old state -> New state
    0     ->     1 
    2     ->     9 
davidson 9 20  |r|= 1.47  e= [0.01667698 0.06122453 0.17106362 0.1794238  0.2058467  0.20602896
 0.21004128 0.21666567 0.21774724 0.23358326]  max|de|= 0.0625  lindep= 0.0899
Old state -> New state
    0     ->     1 
    2     ->     3 
    2     ->     4 
    3     ->     5 
    4     ->     7 
    5     ->     8 
    6     ->     9 
davidson 10 30  |r|= 1.59  e= [0.00236088 0.02456604 0.0295619  0.10367634 0.17106266 0.17942296
 0.17983885 0.20584661 0.20602893 0.21003039]  max|de|= -0.142  lindep= 0.13
Old state -> New state
    9     ->     1 
    4     ->     2 
    5     ->     3 
    7     ->     4 
    8     ->     5 
    2     ->     6 
    9     ->     7 
    2     ->     8 
    6     ->     9 
davidson 11 40  |r|= 1.45  e= [0.00354215 0.15508127 0.17106137 0.17942321 0.20584791 0.20602856
 0.20793957 0.21004205 0.21666562 0.21774892]  max|de|= 0.187  lindep= 0.0238
Old state -> New state
    2     ->     1 
    3     ->     2 
    4     ->     3 
    5     ->     4 
    7     ->     5 
    8     ->     6 
    9     ->     7 
    7     ->     8 
    7     ->     9 
davidson 12 50  |r|=  1.1  e= [0.01202618 0.17106272 0.17942275 0.20584672 0.20602894 0.21004025
 0.21666562 0.21774598 0.25106146 0.25248605]  max|de|= 0.0424  lindep= 0.192
Old state -> New state
    1     ->     0 
    0     ->     1 
    8     ->     2 
    1     ->     3 
    2     ->     4 
    3     ->     5 
    4     ->     6 
    5     ->     7 
    6     ->     8 
    7     ->     9 
davidson 13 60  |r|= 1.24  e= [0.00144762 0.02042389 0.05297769 0.17106272 0.17942274 0.2058477
 0.20602894 0.21004135 0.21666562 0.21774634]  max|de|= -0.198  lindep= 0.0987
Old state -> New state
    1     ->     0 
    3     ->     1 
    4     ->     2 
    4     ->     3 
    5     ->     4 
    6     ->     5 
    7     ->     6 
    8     ->     7 
    9     ->     8 
    2     ->     9 
davidson 14 70  |r|= 1.27  e= [0.02030133 0.17106279 0.17942283 0.18492925 0.20584656 0.20602893
 0.2100413  0.21666562 0.2177481  0.2270856 ]  max|de|= 0.174  lindep= 0.121
Old state -> New state
    3     ->     0 
    0     ->     1 
    1     ->     2 
    2     ->     3 
davidson 15 80  |r|= 1.33  e= [0.01351633 0.08118598 0.17106285 0.1794227  0.20584696 0.20602894
 0.2100412  0.21666562 0.21774746 0.27193311]  max|de|= -0.171  lindep= 0.0998
root 2 converged  |r|= 4.57e-06  e= 0.17106284513865982  max|de|= 2.78e-16
root 3 converged  |r|= 5.89e-06  e= 0.17942269823530746  max|de|= -1.11e-16
root 5 converged  |r|= 2.84e-06  e= 0.20602893789301782  max|de|= -1.67e-16
root 6 converged  |r|= 2.45e-05  e= 0.21004119840045044  max|de|= 5e-16
root 7 converged  |r|= 1.06e-06  e= 0.21666561807536192  max|de|= -1.11e-16
davidson 16 10  |r|= 1.33  e= [0.01351633 0.08118598 0.17106285 0.1794227  0.20584696 0.20602894
 0.2100412  0.21666562 0.21774746 0.27193311]  max|de|= 6.38e-15  lindep= 0.209
Old state -> New state
    1     ->     2 
    2     ->     3 
    3     ->     4 
    4     ->     5 
    5     ->     6 
    6     ->     7 
    7     ->     8 
    8     ->     9 
davidson 17 15  |r|= 1.53  e= [0.0768053  0.128711   0.14312829 0.17106284 0.1794227  0.20584682
 0.20602894 0.2100414  0.21666562 0.21774704]  max|de|= 0.0633  lindep= 0.123
Old state -> New state
    2     ->     0 
    7     ->     1 
    3     ->     2 
    4     ->     3 
    5     ->     4 
    6     ->     5 
    7     ->     6 
    8     ->     7 
    9     ->     8 
davidson 18 22  |r|= 1.32  e= [0.11049965 0.14030903 0.17106296 0.17942271 0.20584663 0.20602894
 0.21004186 0.21666562 0.21774723 0.22223592]  max|de|= -0.0697  lindep= 0.261
Old state -> New state
    1     ->     0 
    2     ->     1 
    3     ->     2 
    4     ->     3 
    5     ->     4 
    6     ->     5 
    7     ->     6 
    8     ->     7 
    0     ->     9 
davidson 19 30  |r|= 1.08  e= [0.10733397 0.17106285 0.17942269 0.20584706 0.20602894 0.21004097
 0.21666562 0.21773971 0.21852351 0.27226852]  max|de|= 0.162  lindep= 0.184
Old state -> New state
    1     ->     0 
    5     ->     1 
    0     ->     2 
    1     ->     3 
    1     ->     4 
    2     ->     5 
    3     ->     6 
    4     ->     7 
    5     ->     8 
    6     ->     9 
davidson 20 38  |r|= 1.34  e= [0.00782881 0.02386008 0.09290813 0.14989436 0.17106286 0.17942269
 0.20584725 0.20602894 0.21004142 0.21666562]  max|de|= -0.186  lindep= 0.152
Old state -> New state
    4     ->     0 
    4     ->     1 
    5     ->     2 
    6     ->     3 
    7     ->     4 
    8     ->     5 
    8     ->     6 
    9     ->     7 
    2     ->     8 
    2     ->     9 
davidson 21 44  |r|= 1.09  e= [0.15786577 0.17106287 0.17942268 0.2058472  0.20602894 0.21003943
 0.21251787 0.21666562 0.21774708 0.23215236]  max|de|= 0.139  lindep= 0.231
Old state -> New state
    9     ->     0 
    0     ->     1 
    1     ->     2 
    1     ->     3 
    2     ->     4 
    3     ->     5 
    4     ->     6 
    5     ->     7 
    7     ->     8 
    8     ->     9 
davidson 22 52  |r|= 1.36  e= [0.03888591 0.14721916 0.16370021 0.17106283 0.1794227  0.20584687
 0.20602894 0.2100413  0.21666562 0.21774764]  max|de|= -0.193  lindep= 0.142
Old state -> New state
    0     ->     1 
    0     ->     2 
davidson 23 60  |r|= 1.34  e= [0.02189832 0.03817841 0.12347638 0.17106285 0.17942269 0.20584694
 0.20602894 0.21004132 0.21666562 0.21774745]  max|de|= 0.0846  lindep= 0.0384
Old state -> New state
    2     ->     1 
    7     ->     2 
root 4 converged  |r|= 3.3e-07  e= 0.1794226936702901  max|de|= 2.37e-10
root 8 converged  |r|= 2.9e-07  e= 0.2166656181637146  max|de|= 2.87e-10
davidson 24 66  |r|= 1.23  e= [0.02725672 0.05741847 0.15149113 0.17106285 0.17942269 0.20584694
 0.20602894 0.21004132 0.21666562 0.21774742]  max|de|= -0.0661  lindep= 0.08
Old state -> New state
    3     ->     1 
    4     ->     2 
    5     ->     4 
    6     ->     5 
    7     ->     6 
    8     ->     7 
    9     ->     8 
    1     ->     9 
davidson 25 72  |r|= 1.34  e= [0.09608783 0.17106286 0.17942269 0.19786424 0.20584694 0.20602894
 0.21004134 0.21666562 0.21774745 0.24000897]  max|de|= 0.183  lindep= 0.145
Old state -> New state
    3     ->     0 
    0     ->     1 
    1     ->     2 
    2     ->     3 
davidson 26 78  |r|= 1.33  e= [0.05722305 0.09850046 0.17106285 0.17942269 0.20584693 0.20602894
 0.21004132 0.21666562 0.21774743 0.24176139]  max|de|= -0.141  lindep= 0.07
root 2 converged  |r|= 5.56e-08  e= 0.17106285440856187  max|de|= -7.77e-16
root 4 converged  |r|= 1.98e-06  e= 0.20584693394259712  max|de|= 1.39e-16
root 6 converged  |r|= 8.89e-07  e= 0.21004132208844078  max|de|= -1.14e-15
root 8 converged  |r|= 2.49e-06  e= 0.21774742712729042  max|de|= -8.33e-17
davidson 27 10  |r|= 1.33  e= [0.05722305 0.09850046 0.17106285 0.17942269 0.20584693 0.20602894
 0.21004132 0.21666562 0.21774743 0.24176139]  max|de|= 1.49e-14  lindep= 0.283
Old state -> New state
    0     ->     1 
davidson 28 13  |r|= 1.56  e= [0.02612428 0.13664329 0.17106285 0.17942269 0.20584693 0.20602894
 0.21004131 0.21666562 0.21774742]  max|de|= 0.0794  lindep= 0.292
Old state -> New state
    0     ->     1 
    0     ->     2 
    2     ->     3 
    3     ->     4 
    4     ->     5 
    5     ->     6 
    6     ->     7 
    7     ->     8 
    8     ->     9 
davidson 29 18  |r|= 1.48  e= [0.01071963 0.03975961 0.08290586 0.17106285 0.17942269 0.20584693
 0.20602894 0.21004133 0.21666562 0.21774745]  max|de|= 0.0568  lindep= 0.191
Old state -> New state
    1     ->     0 
    3     ->     1 
    3     ->     2 
    4     ->     3 
    5     ->     4 
    6     ->     5 
    7     ->     6 
    8     ->     7 
    9     ->     8 
    1     ->     9 
root 6 converged  |r|= 4.3e-07  e= 0.21004132902904715  max|de|= -9.85e-10
davidson 30 23  |r|= 1.04  e= [0.04972268 0.15879047 0.17106286 0.17942269 0.20584693 0.20602894
 0.21004133 0.21666562 0.21774744 0.23987507]  max|de|=  0.2  lindep= 0.267
Old state -> New state
    0     ->     1 
    1     ->     2 
    2     ->     3 
    3     ->     4 
    4     ->     5 
    5     ->     6 
    6     ->     7 
    7     ->     8 
    8     ->     9 
davidson 31 26  |r|= 1.24  e= [0.02361234 0.0556299  0.16837339 0.17106285 0.17942269 0.20584693
 0.20602894 0.21004133 0.21666562 0.21774743]  max|de|= -0.0261  lindep= 0.095
Old state -> New state
    3     ->     2 
    4     ->     3 
    5     ->     4 
    6     ->     5 
    7     ->     6 
    8     ->     7 
    9     ->     8 
    2     ->     9 
root 4 converged  |r|= 3.12e-07  e= 0.20584693295735104  max|de|= -5.68e-10
davidson 32 29  |r|= 1.46  e= [0.02345139 0.07093777 0.17106285 0.17942269 0.20584693 0.20602894
 0.21004133 0.21666562 0.21774743 0.24090649]  max|de|= 0.0725  lindep= 0.0185
Old state -> New state
    2     ->     1 
root 6 converged  |r|= 2.86e-07  e= 0.21004132703898018  max|de|= 6.07e-10
root 8 converged  |r|= 7.02e-07  e= 0.2177474334186796  max|de|= 6.77e-10
davidson 33 32  |r|= 1.29  e= [0.01774968 0.15916318 0.17106286 0.17942269 0.20584693 0.20602894
 0.21004133 0.21666562 0.21774743 0.24085446]  max|de|= -0.0119  lindep= 0.0225
Old state -> New state
    2     ->     0 
    3     ->     1 
    9     ->     2 
    4     ->     3 
    5     ->     4 
    6     ->     5 
    7     ->     6 
    8     ->     7 
    9     ->     8 
davidson 34 35  |r|= 0.717  e= [0.17106285 0.17942269 0.1982619  0.20584693 0.20602894 0.21004134
 0.21666562 0.21774745 0.23822869 0.30892851]  max|de|= 0.0681  lindep= 0.213
Old state -> New state
    0     ->     1 
    1     ->     2 
    2     ->     3 
    3     ->     4 
    4     ->     5 
    5     ->     6 
    6     ->     7 
    7     ->     8 
    8     ->     9 
davidson 35 40  |r|= 0.624  e= [0.1651921  0.17106285 0.17942269 0.18391437 0.20584694 0.20602894
 0.21004133 0.21666562 0.21774744 0.24057918]  max|de|= -0.0143  lindep= 0.148
Old state -> New state
    9     ->     0 
    0     ->     1 
    0     ->     2 
    1     ->     3 
    2     ->     4 
    4     ->     5 
    5     ->     6 
    6     ->     7 
    7     ->     8 
    8     ->     9 
root 5 converged  |r|= 1.71e-07  e= 0.2058469350899359  max|de|= 8.37e-11
davidson 36 43  |r|= 1.16  e= [0.04175238 0.10595362 0.16142192 0.17106285 0.17942269 0.20584694
 0.20602894 0.21004133 0.21666562 0.21774743]  max|de|= -0.199  lindep= 0.164
Old state -> New state
    3     ->     2 
    4     ->     3 
    5     ->     4 
    6     ->     5 
    7     ->     6 
    8     ->     7 
    9     ->     8 
    1     ->     9 
root 2 converged  |r|= 1.44e-08  e= 0.17106285455849699  max|de|= -4.37e-10
root 3 converged  |r|= 1.98e-08  e= 0.17942269315061227  max|de|= -3.41e-10
davidson 37 46  |r|= 1.13  e= [0.0448295  0.14226565 0.17106285 0.17942269 0.20584693 0.20602894
 0.21004133 0.21666562 0.21774743 0.2956675 ]  max|de|= 0.19  lindep= 0.0347
Old state -> New state
    2     ->     1 
    3     ->     2 
    2     ->     3 
    1     ->     9 
davidson 38 49  |r|=    1  e= [0.00363971 0.17106285 0.17942269 0.19366445 0.20584694 0.20602894
 0.21004133 0.21666562 0.21774743 0.24126257]  max|de|= 0.099  lindep= 0.0922
Old state -> New state
    3     ->     1 
    1     ->     2 
    2     ->     3 
root 6 converged  |r|= 5.21e-08  e= 0.2100413293588931  max|de|= -8.54e-10
root 8 converged  |r|= 1.26e-07  e= 0.21774743354835896  max|de|= 9.94e-10
davidson 39 52  |r|=  1.2  e= [0.00191099 0.13103854 0.17106285 0.17942269 0.20584693 0.20602894
 0.21004133 0.21666562 0.21774743 0.24083964]  max|de|= -0.0626  lindep= 0.0141
Old state -> New state
    2     ->     0 
    2     ->     1 
    9     ->     2 
root 4 converged  |r|= 1.08e-07  e= 0.20584693442438812  max|de|= -1.1e-10
davidson 40 55  |r|=  0.8  e= [0.15151453 0.17106285 0.17665723 0.17942269 0.20584693 0.20602894
 0.21004133 0.21666562 0.21774743 0.24068739]  max|de|= -0.0642  lindep= 0.114
Old state -> New state
    2     ->     0 
    0     ->     1 
    1     ->     2 
davidson 41 58  |r|= 1.14  e= [0.1512374  0.15287322 0.17106285 0.17942269 0.20584693 0.20602894
 0.21004133 0.21666562 0.21774743 0.24065292]  max|de|= -0.0254  lindep= 0.0749
Old state -> New state
    1     ->     0 
    2     ->     1 
    3     ->     2 
    4     ->     3 
    5     ->     4 
    6     ->     5 
    7     ->     6 
    8     ->     7 
    9     ->     8 
    1     ->     9 
davidson 42 61  |r|=  0.7  e= [0.14773693 0.17106285 0.17942269 0.20584693 0.20602894 0.21004133
 0.21666562 0.21774743 0.24084133 0.2706448 ]  max|de|= 0.118  lindep= 0.0245
Old state -> New state
    0     ->     1 
    1     ->     2 
    2     ->     3 
    3     ->     4 
    4     ->     5 
    5     ->     6 
    6     ->     7 
    7     ->     8 
    5     ->     9 
davidson 43 64  |r|= 0.979  e= [0.08674689 0.14634887 0.17106285 0.17942269 0.20584693 0.20602894
 0.21004133 0.21666562 0.21774744 0.2266037 ]  max|de|= -0.061  lindep= 0.145
Old state -> New state
    2     ->     1 
    3     ->     2 
    4     ->     3 
    5     ->     4 
    6     ->     5 
davidson 44 68  |r|= 1.08  e= [0.08612105 0.17106285 0.17942269 0.20584693 0.20602894 0.21004131
 0.2104566  0.21666562 0.21774743 0.24080212]  max|de|= 0.0142  lindep= 0.0122
Old state -> New state
    0     ->     1 
    0     ->     2 
    1     ->     3 
    2     ->     4 
    3     ->     5 
    4     ->     6 
    5     ->     7 
    7     ->     8 
    8     ->     9 
root 9 converged  |r|= 2.41e-07  e= 0.21774743344642478  max|de|= 3.43e-12
davidson 45 72  |r|= 1.23  e= [0.01672623 0.06503666 0.1065764  0.17106285 0.17942269 0.20584693
 0.20602894 0.21004133 0.21666562 0.21774743]  max|de|= -0.0694  lindep= 0.12
Old state -> New state
    3     ->     1 
    4     ->     2 
    5     ->     3 
    6     ->     4 
    7     ->     5 
    8     ->     6 
    9     ->     7 
    2     ->     8 
    1     ->     9 
root 5 converged  |r|= 3.97e-08  e= 0.2100413294991446  max|de|= 7.72e-11
davidson 46 75  |r|= 1.55  e= [0.06989221 0.17106285 0.17942269 0.20584693 0.20602894 0.21004133
 0.21666562 0.21774743 0.24087979 0.24618227]  max|de|= 0.181  lindep= 0.074
Old state -> New state
    1     ->     0 
    2     ->     1 
    3     ->     2 
    4     ->     3 
    5     ->     4 
    6     ->     5 
    7     ->     6 
    8     ->     7 
    5     ->     8 
davidson 47 78  |r|= 1.06  e= [0.17106285 0.17942269 0.20584693 0.20602894 0.21004133 0.21666562
 0.21774744 0.24077108 0.24646115 0.26518974]  max|de|= 0.0364  lindep= 0.182
davidson 48 10  |r|= 1.06  e= [0.17106285 0.17942269 0.20584693 0.20602894 0.21004133 0.21666562
 0.21774744 0.24077108 0.24646116 0.26518974]  max|de|= 4.72e-09  lindep= 0.539
Old state -> New state
    8     ->     0 
    0     ->     1 
    1     ->     2 
    2     ->     3 
    3     ->     4 
    4     ->     5 
    5     ->     6 
    6     ->     7 
    7     ->     8 
    7     ->     9 
root 5 converged  |r|= 4.73e-08  e= 0.21004132982331686  max|de|= 2.21e-10
davidson 49 13  |r|= 1.58  e= [0.11281994 0.17106285 0.17942269 0.20584693 0.20602894 0.21004133
 0.21666562 0.21774743 0.24080091 0.25312863]  max|de|= -0.134  lindep= 0.25
davidson 50 16  |r|= 1.38  e= [0.13836874 0.17106285 0.17942269 0.20584693 0.20602894 0.21004133
 0.21666562 0.21774743 0.24078635 0.26101465]  max|de|= 0.0255  lindep= 0.352
Old state -> New state
    1     ->     0 
    2     ->     1 
    3     ->     2 
    4     ->     3 
    5     ->     4 
    6     ->     5 
    7     ->     6 
    8     ->     9 
davidson 51 19  |r|= 0.686  e= [0.17106285 0.17942269 0.20584693 0.20602894 0.21004133 0.21666562
 0.21774743 0.21892411 0.22422912 0.24080032]  max|de|= -0.0166  lindep= 0.217
Old state -> New state
    8     ->     0 
    0     ->     1 
    0     ->     2 
    1     ->     3 
    2     ->     5 
    3     ->     6 
    4     ->     7 
    5     ->     8 
    5     ->     9 
davidson 52 24  |r|= 1.22  e= [0.01091963 0.15888369 0.17106286 0.17942269 0.19852066 0.20584693
 0.20602894 0.21004133 0.21663056 0.2166657 ]  max|de|= -0.213  lindep= 0.182
Old state -> New state
    2     ->     1 
    3     ->     2 
    5     ->     3 
    6     ->     4 
    7     ->     5 
    9     ->     6 
    8     ->     7 
    4     ->     8 
    1     ->     9 
root 5 converged  |r|= 2.62e-08  e= 0.21004132943429524  max|de|= 8.33e-10
davidson 53 29  |r|= 1.14  e= [0.00923262 0.17106285 0.17942269 0.20584693 0.20602894 0.21004133
 0.21666562 0.21774743 0.24078207 0.26309446]  max|de|= 0.104  lindep= 0.109
Old state -> New state
    8     ->     3 
    3     ->     4 
    4     ->     5 
    5     ->     6 
    6     ->     7 
    7     ->     8 
    8     ->     9 
root 1 converged  |r|= 2.39e-08  e= 0.171062854509698  max|de|= 1.07e-10
root 7 converged  |r|= 5.36e-08  e= 0.216665618203949  max|de|= 6.97e-12
root 8 converged  |r|= 4.16e-08  e= 0.21774743405612793  max|de|= 1.67e-10
davidson 54 32  |r|= 1.32  e= [0.03771764 0.17106285 0.17942269 0.18418394 0.20584693 0.20602894
 0.21004133 0.21666562 0.21774743 0.24078206]  max|de|= -0.0566  lindep= 0.294
Old state -> New state
    9     ->     1 
    1     ->     2 
    2     ->     3 
davidson 55 35  |r|= 1.32  e= [0.03164128 0.09329215 0.17106285 0.17942269 0.20584693 0.20602894
 0.21004133 0.21666562 0.21774743 0.24077791]  max|de|= -0.147  lindep= 0.0245
Old state -> New state
    9     ->     0 
    2     ->     1 
davidson 56 38  |r|= 1.28  e= [0.1005138  0.16942751 0.17106285 0.17942269 0.20584693 0.20602894
 0.21004133 0.21666562 0.21774743 0.2407762 ]  max|de|= -0.14  lindep= 0.16
Old state -> New state
    9     ->     0 
    2     ->     1 
    3     ->     2 
    4     ->     3 
    5     ->     4 
    6     ->     5 
    7     ->     6 
    8     ->     7 
    9     ->     8 
    0     ->     9 
davidson 57 41  |r|= 0.999  e= [0.1541269  0.17106285 0.17942269 0.20584693 0.20602894 0.21004133
 0.21666562 0.21774743 0.24078125 0.26253789]  max|de|= 0.162  lindep= 0.291
Old state -> New state
    0     ->     1 
    1     ->     2 
    2     ->     3 
    3     ->     4 
    4     ->     5 
    5     ->     6 
    6     ->     7 
    7     ->     8 
    8     ->     9 
davidson 58 44  |r|= 1.39  e= [0.02550881 0.09196999 0.17106285 0.17942269 0.20584693 0.20602894
 0.21004133 0.21666562 0.21774743 0.24077971]  max|de|= -0.129  lindep= 0.135
Old state -> New state
    2     ->     1 
    3     ->     2 
    4     ->     3 
    5     ->     4 
    6     ->     5 
    7     ->     6 
    8     ->     7 
    9     ->     8 
    1     ->     9 
davidson 59 47  |r|= 1.09  e= [0.08941709 0.17106285 0.17942269 0.20584693 0.20602894 0.21004133
 0.21666562 0.21774743 0.24077973 0.26218329]  max|de|= 0.17  lindep= 0.124
Old state -> New state
    5     ->     3 
    3     ->     4 
    4     ->     5 
    5     ->     6 
    6     ->     7 
    7     ->     8 
    8     ->     9 
davidson 60 50  |r|= 0.953  e= [0.0707877  0.17106285 0.17942269 0.19155611 0.20584693 0.20602894
 0.21004133 0.21666562 0.21774743 0.24077968]  max|de|= -0.0186  lindep= 0.107
Old state -> New state
    4     ->     3 
    5     ->     4 
    6     ->     5 
    7     ->     6 
    8     ->     7 
    9     ->     8 
davidson 61 53  |r|= 0.81  e= [0.06516434 0.17106285 0.17942269 0.20584693 0.20602894 0.21004133
 0.21666562 0.21774743 0.23493116 0.24077939]  max|de|= -0.00585  lindep= 0.0416
Old state -> New state
    9     ->     1 
    1     ->     2 
    2     ->     3 
    3     ->     4 
    4     ->     5 
    5     ->     6 
    6     ->     7 
    7     ->     8 
davidson 62 56  |r|= 1.23  e= [0.06536745 0.12715443 0.17106285 0.17942269 0.20584693 0.20602894
 0.21004133 0.21666562 0.21774743 0.24078077]  max|de|= -0.114  lindep= 0.00272
Old state -> New state
    2     ->     1 
    3     ->     2 
    4     ->     3 
    5     ->     4 
    6     ->     5 
    7     ->     6 
    8     ->     7 
    9     ->     8 
    1     ->     9 
davidson 63 59  |r|= 0.865  e= [0.06478798 0.17106285 0.17942269 0.20584693 0.20602894 0.21004133
 0.21666562 0.21774743 0.24078088 0.26243014]  max|de|= 0.135  lindep= 0.0327
Old state -> New state
    0     ->     1 
    1     ->     2 
    2     ->     3 
    3     ->     4 
    4     ->     5 
    5     ->     6 
    6     ->     7 
    7     ->     8 
    8     ->     9 
davidson 64 62  |r|= 1.16  e= [0.0354836  0.05375213 0.17106285 0.17942269 0.20584693 0.20602894
 0.21004133 0.21666562 0.21774743 0.24078086]  max|de|= -0.0293  lindep= 0.0421
Old state -> New state
    2     ->     1 
    3     ->     2 
    4     ->     3 
    5     ->     4 
    6     ->     5 
    7     ->     6 
    8     ->     7 
    9     ->     8 
    0     ->     9 
davidson 65 65  |r|= 1.01  e= [0.11734023 0.17106285 0.17942269 0.20584693 0.20602894 0.21004133
 0.21666562 0.21774743 0.24078088 0.26245565]  max|de|= 0.227  lindep= 0.118
Old state -> New state
    0     ->     1 
    1     ->     2 
    2     ->     3 
    3     ->     4 
    4     ->     5 
    5     ->     6 
    6     ->     7 
    7     ->     8 
    8     ->     9 
davidson 66 68  |r|=  1.1  e= [0.09592489 0.15379781 0.17106285 0.17942269 0.20584693 0.20602894
 0.21004133 0.21666562 0.21774743 0.24078081]  max|de|= 0.0365  lindep= 0.0631
Old state -> New state
    2     ->     1 
    3     ->     2 
    4     ->     3 
    5     ->     4 
    6     ->     5 
    7     ->     6 
    8     ->     7 
    9     ->     8 
    0     ->     9 
davidson 67 71  |r|= 1.06  e= [0.08933716 0.17106285 0.17942269 0.20584693 0.20602894 0.21004133
 0.21666562 0.21774743 0.24078086 0.26251603]  max|de|= 0.167  lindep= 0.033
davidson 68 74  |r|= 1.06  e= [0.08935954 0.17106285 0.17942269 0.20584693 0.20602894 0.21004133
 0.21666562 0.21774743 0.24078087 0.26244839]  max|de|= -6.76e-05  lindep= 0.00404
Old state -> New state
    8     ->     9 
davidson 69 77  |r|= 1.05  e= [0.08914616 0.17106285 0.17942269 0.20584693 0.20602894 0.21004133
 0.21666562 0.21774743 0.24078078 0.2510848 ]  max|de|= 0.0103  lindep= 0.00661
root 8 converged  |r|= 8.43e-06  e= 0.2407807785964403  max|de|= 1.99e-10
davidson 70 10  |r|= 1.05  e= [0.08914616 0.17106285 0.17942269 0.20584693 0.20602894 0.21004133
 0.21666562 0.21774743 0.24078078 0.2510848 ]  max|de|= -4.4e-10  lindep= 0.291
Old state -> New state
    8     ->     3 
    3     ->     4 
    4     ->     5 
    5     ->     6 
    6     ->     7 
    7     ->     8 
    8     ->     9 
davidson 71 12  |r|= 1.04  e= [0.0893841  0.17106285 0.17942269 0.1901209  0.20584693 0.20602894
 0.21004133 0.21666562 0.21774743 0.24078084]  max|de|= -0.0507  lindep= 0.00368
Old state -> New state
    9     ->     1 
    1     ->     2 
    2     ->     3 
    9     ->     4 
    4     ->     5 
    5     ->     6 
    6     ->     7 
    7     ->     8 
    8     ->     9 
davidson 72 15  |r|= 1.12  e= [0.08645236 0.11784546 0.17106285 0.17942269 0.18042978 0.20584693
 0.20602894 0.21004133 0.21666562 0.21774743]  max|de|= -0.123  lindep= 0.092
Old state -> New state
    2     ->     3 
    3     ->     4 
davidson 73 18  |r|= 1.24  e= [0.0692512  0.09033535 0.15911363 0.17106285 0.17942269 0.20584693
 0.20602894 0.21004133 0.21666562 0.21774744]  max|de|= -0.0275  lindep= 0.155
Old state -> New state
    1     ->     0 
    0     ->     1 
    1     ->     2 
davidson 74 21  |r|= 1.34  e= [0.03019287 0.06816439 0.10406313 0.17106285 0.17942269 0.20584693
 0.20602894 0.21004133 0.21666562 0.21774743]  max|de|= -0.0601  lindep= 0.161
Old state -> New state
    3     ->     1 
    4     ->     2 
    5     ->     3 
    6     ->     4 
    7     ->     5 
    8     ->     6 
    9     ->     7 
    2     ->     8 
    2     ->     9 
root 7 converged  |r|= 1.48e-08  e= 0.2177474341357481  max|de|= 7.88e-10
davidson 75 24  |r|= 1.37  e= [0.09149753 0.17106285 0.17942269 0.20584693 0.20602894 0.21004133
 0.21666562 0.21774743 0.2407811  0.28496411]  max|de|= 0.181  lindep= 0.135
davidson 76 27  |r|= 1.54  e= [0.02581752 0.17106285 0.17942269 0.20584693 0.20602894 0.21004133
 0.21666562 0.21774743 0.24078087 0.26007344]  max|de|= -0.0657  lindep= 0.153
Old state -> New state
    1     ->     3 
    3     ->     4 
    4     ->     5 
    5     ->     6 
    6     ->     7 
    7     ->     8 
    8     ->     9 
davidson 77 30  |r|= 1.19  e= [0.04697852 0.17106286 0.17942269 0.18160665 0.20584693 0.20602894
 0.21004133 0.21666562 0.21774743 0.24078089]  max|de|= 0.0212  lindep= 0.186
Old state -> New state
    9     ->     1 
    1     ->     2 
    2     ->     3 
davidson 78 33  |r|= 1.17  e= [0.05176114 0.13950763 0.17106285 0.17942269 0.20584693 0.20602894
 0.21004133 0.21666562 0.21774743 0.24078091]  max|de|= -0.101  lindep= 0.0327
Old state -> New state
    2     ->     1 
    3     ->     2 
    4     ->     3 
    5     ->     4 
    6     ->     5 
    7     ->     6 
    8     ->     7 
    9     ->     8 
    1     ->     9 
davidson 79 36  |r|= 1.27  e= [0.03498017 0.17106285 0.17942269 0.20584693 0.20602894 0.21004133
 0.21666562 0.21774743 0.24078087 0.26374551]  max|de|= 0.124  lindep= 0.06
Old state -> New state
    1     ->     0 
    2     ->     1 
    3     ->     2 
    4     ->     3 
    5     ->     4 
    6     ->     5 
    7     ->     6 
    8     ->     7 
davidson 80 39  |r|= 0.949  e= [0.17106285 0.17942269 0.20584693 0.20602894 0.21004133 0.21666562
 0.21774743 0.22681199 0.24078076 0.26395757]  max|de|= -0.014  lindep= 0.27
davidson 81 42  |r|= 0.82  e= [0.17106285 0.17942269 0.20584693 0.20602894 0.21004133 0.21666562
 0.21774743 0.22335955 0.24078073 0.26211554]  max|de|= -0.00345  lindep= 0.0733
Old state -> New state
    7     ->     0 
    0     ->     1 
    1     ->     2 
    0     ->     3 
    2     ->     4 
    3     ->     5 
    4     ->     6 
    5     ->     7 
    6     ->     8 
    8     ->     9 
davidson 82 45  |r|= 1.21  e= [0.15221543 0.17106285 0.17942269 0.18131554 0.20584693 0.20602894
 0.21004133 0.21666562 0.21774743 0.2390083 ]  max|de|= -0.0711  lindep= 0.19
Old state -> New state
    1     ->     0 
    0     ->     1 
    1     ->     2 
    2     ->     3 
davidson 83 48  |r|= 1.25  e= [0.10309799 0.14896937 0.17106285 0.17942269 0.20584693 0.20602894
 0.21004133 0.21666562 0.21774743 0.2407809 ]  max|de|= -0.068  lindep= 0.107
Old state -> New state
    2     ->     1 
    3     ->     2 
    4     ->     3 
    5     ->     4 
    6     ->     5 
    7     ->     6 
    8     ->     7 
    9     ->     8 
    1     ->     9 
root 1 converged  |r|= 1.86e-08  e= 0.17106285461989243  max|de|= -2.6e-10
davidson 84 51  |r|= 1.16  e= [0.02775857 0.17106285 0.17942269 0.20584693 0.20602894 0.21004133
 0.21666562 0.21774743 0.24078094 0.26248746]  max|de|= 0.114  lindep= 0.0913
Old state -> New state
    5     ->     1 
    1     ->     2 
    2     ->     3 
    3     ->     4 
    4     ->     5 
    5     ->     6 
    6     ->     7 
    7     ->     8 
    8     ->     9 
davidson 85 54  |r|= 1.14  e= [0.02940495 0.13180395 0.17106285 0.17942269 0.20584693 0.20602894
 0.21004133 0.21666562 0.21774743 0.24078091]  max|de|= -0.0782  lindep= 0.0166
Old state -> New state
    2     ->     1 
    3     ->     2 
    4     ->     3 
    5     ->     4 
    6     ->     5 
    7     ->     6 
    8     ->     7 
    9     ->     8 
    0     ->     9 
davidson 86 56  |r|= 1.17  e= [0.13928146 0.17106285 0.17942269 0.20584693 0.20602894 0.21004133
 0.21666562 0.21774743 0.2407809  0.26252617]  max|de|= 0.233  lindep= 0.126
davidson 87 58  |r|=  1.1  e= [0.02842617 0.17106285 0.17942269 0.20584693 0.20602894 0.21004133
 0.21666562 0.21774743 0.2407809  0.26249947]  max|de|= -0.111  lindep= 0.0832
Old state -> New state
    1     ->     2 
    2     ->     3 
    3     ->     4 
    4     ->     5 
    5     ->     6 
    6     ->     7 
    7     ->     8 
    8     ->     9 
davidson 88 60  |r|= 1.07  e= [0.02830994 0.16328102 0.17106286 0.17942269 0.20584693 0.20602894
 0.21004133 0.21666562 0.21774743 0.2407809 ]  max|de|= -0.00778  lindep= 0.0157
Old state -> New state
    0     ->     1 
    6     ->     4 
    4     ->     5 
    5     ->     6 
    6     ->     7 
    7     ->     8 
    8     ->     9 
davidson 89 63  |r|= 1.15  e= [0.00561682 0.10483454 0.17106285 0.17942269 0.18869734 0.20584693
 0.20602894 0.21004133 0.21666562 0.21774743]  max|de|= 0.0765  lindep= 0.0733
Old state -> New state
    2     ->     0 
    3     ->     1 
    5     ->     2 
    6     ->     3 
    7     ->     4 
    8     ->     5 
    9     ->     6 
    4     ->     7 
    4     ->     8 
    4     ->     9 
root 0 converged  |r|= 9.14e-07  e= 0.17106284615995626  max|de|= 4.78e-10
root 1 converged  |r|= 1.78e-08  e= 0.17942269309871667  max|de|= 9.93e-10
davidson 90 67  |r|= 0.0542  e= [0.17106285 0.17942269 0.20584693 0.20602894 0.21004133 0.21666562
 0.21774743 0.24078091 0.26250071 0.26301608]  max|de|= 0.0743  lindep= 0.242
Old state -> New state
    4     ->     0 
    0     ->     1 
    1     ->     2 
    2     ->     3 
    3     ->     4 
    4     ->     5 
    5     ->     6 
    6     ->     7 
    7     ->     8 
root 3 converged  |r|= 3.25e-07  e= 0.2058469351700016  max|de|= 5.9e-10
davidson 91 70  |r|= 1.33  e= [0.09585557 0.17106285 0.17942269 0.20584694 0.20602894 0.21004133
 0.21666562 0.21774743 0.24078092 0.26202143]  max|de|= -0.114  lindep= 0.145
Old state -> New state
    9     ->     0 
davidson 92 74  |r|= 1.17  e= [0.08022956 0.17106284 0.17942269 0.20584693 0.20602894 0.21004133
 0.21666562 0.21774743 0.24078141 0.25458962]  max|de|= -0.182  lindep= 0.139
davidson 93 78  |r|= 1.27  e= [0.06517276 0.17106289 0.17942269 0.20584694 0.20602894 0.21004133
 0.21666562 0.21774743 0.24078143 0.26179607]  max|de|= -0.0151  lindep= 0.126
davidson 94 10  |r|= 1.27  e= [0.06517282 0.17106291 0.17942269 0.20584693 0.20602894 0.21004133
 0.21666562 0.21774743 0.24078145 0.26179602]  max|de|= 6.37e-08  lindep= 0.273
Old state -> New state
    0     ->     1 
    1     ->     2 
    2     ->     3 
    3     ->     4 
    4     ->     5 
    5     ->     6 
    6     ->     7 
    7     ->     8 
    8     ->     9 
davidson 95 15  |r|= 1.51  e= [0.03949681 0.06144691 0.17106286 0.17942269 0.20584694 0.20602894
 0.21004133 0.21666562 0.21774744 0.23599844]  max|de|= -0.0257  lindep= 0.157
Old state -> New state
    9     ->     1 
    2     ->     3 
    3     ->     4 
    4     ->     5 
    5     ->     6 
    6     ->     7 
    7     ->     8 
    8     ->     9 
root 9 converged  |r|= 5.43e-07  e= 0.21774743961646367  max|de|= 3.11e-10
davidson 96 20  |r|= 1.31  e= [0.03146906 0.14019374 0.16333427 0.17106262 0.17942269 0.20584692
 0.20602894 0.21004133 0.21666562 0.21774744]  max|de|= -0.0958  lindep= 0.133
Old state -> New state
    3     ->     1 
    4     ->     2 
    5     ->     4 
    6     ->     5 
    7     ->     6 
    8     ->     7 
    9     ->     8 
davidson 97 25  |r|=  1.4  e= [0.00559026 0.17106321 0.1794227  0.17983164 0.20584694 0.20602894
 0.21004133 0.21666562 0.21774744 0.22026221]  max|de|= -0.0259  lindep= 0.174
Old state -> New state
    1     ->     2 
    1     ->     3 
    2     ->     4 
    4     ->     5 
    5     ->     6 
    6     ->     7 
    7     ->     8 
    8     ->     9 
root 9 converged  |r|= 2.59e-07  e= 0.21774743682988335  max|de|= 2.94e-10
davidson 98 32  |r|= 1.26  e= [0.02972164 0.08991443 0.158915   0.17106278 0.17942269 0.20584694
 0.20602894 0.21004133 0.21666562 0.21774744]  max|de|= -0.0811  lindep= 0.183
Old state -> New state
    2     ->     1 
    3     ->     2 
root 4 converged  |r|= 1.7e-07  e= 0.1794226931324778  max|de|= 1.75e-11
davidson 99 37  |r|= 1.26  e= [0.03333744 0.08054949 0.16970514 0.17106232 0.17942269 0.20584694
 0.20602894 0.21004133 0.21666562 0.21774744]  max|de|= -0.0784  lindep= 0.0616
/home/yangjunjie/packages/pyscf/pyscf-main/pyscf/tdscf/rhf.py:1005: RuntimeWarning: invalid value encountered in sqrt
  norm = numpy.sqrt(.5/norm)  # normalize to 0.5 for alpha spin
    CPU time for TDDFT   1443.85 sec, wall time     51.81 sec
TD-SCF states [0, 1, 2, 3, 5, 9] not converged.
Excited State energies (eV)
[0.90715784 2.19186324 4.6179121  4.65484276 4.88234016 5.60138049
 5.60633294 5.7155157  5.89577177 5.92520953]
