 
:: initializing oneAPI environment ...
   slurm_script: BASH_VERSION = 4.2.46(1)-release
   args: Using "$@" for setvars.sh arguments: --force
:: advisor -- latest
:: ccl -- latest
:: clck -- latest
:: compiler -- latest
:: dal -- latest
:: debugger -- latest
:: dev-utilities -- latest
:: dnnl -- latest
:: dpcpp-ct -- latest
:: dpl -- latest
:: inspector -- latest
:: intelpython -- latest
:: ipp -- latest
:: ippcp -- latest
:: ipp -- latest
:: itac -- latest
:: mkl -- latest
:: mpi -- latest
:: tbb -- latest
:: vpl -- latest
:: vtune -- latest
:: oneAPI environment initialized ::
 
SLURM_CPUS_PER_TASK = 28
SLURM_MEM_PER_NODE = 127949
#INFO: **** input file is /home/yangjunjie/work/py-ch3-cl/work/step_-3/main.py ****
import sys
import pyscf
from pyscf import tdscf

def main(xyz_file, basis="631g*", xc="b3lyp", output="ene.out"):
    xyz = None

    with open(xyz_file, "r") as xyz:
        xyz = xyz.readlines()[2:]
        xyz = "".join(xyz)

    mol = pyscf.gto.Mole()
    mol.atom = xyz
    mol.basis = basis
    mol.verbose = 5
    mol.build()

    if xc is not None and xc != "hf":
        mf = pyscf.scf.RKS(mol)
        mf.xc = xc
        mf.kernel()
    else:
        mf = pyscf.scf.RHF(mol)
        mf.kernel()

    ene_mf = mf.e_tot

    tda = pyscf.tdscf.TDA(mf)
    tda.nstates = 10
    tda.kernel()
    ene_tda = tda.e[:5]
    dip_tda = tda.transition_dipole()[:5]

    rpa = pyscf.tdscf.RPA(mf)
    rpa.nstates = 10
    rpa.kernel()
    ene_rpa = rpa.e[:5]
    dip_rpa = rpa.transition_dipole()[:5]

    with open(output, "w") as f:
        f.write(f"RKS energy: {ene_mf: 12.8f}\n")
        f.write("TDA results:\n")
        for i, (ene, dip) in enumerate(zip(ene_tda, dip_tda)):
            f.write(f" {i:2d} {ene: 12.8f} {dip[0]: 12.8f} {dip[1]: 12.8f} {dip[2]: 12.8f}\n")
        
        f.write("\nRPA results:\n")
        for i, (ene, dip) in enumerate(zip(ene_rpa, dip_rpa)):
            f.write(f" {i:2d} {ene: 12.8f} {dip[0]: 12.8f} {dip[1]: 12.8f} {dip[2]: 12.8f}\n")

if __name__ == "__main__":
    xyz = sys.argv[1]
    main(xyz, basis="631g*", xc="b3lyp", output="out.log")
#INFO: ******************** input file end ********************


System: uname_result(system='Linux', node='pauling049', release='3.10.0-327.36.3.el7.x86_64', version='#1 SMP Thu Oct 20 04:56:07 EDT 2016', machine='x86_64')  Threads 28
Python 3.9.7 (default, Oct 27 2021, 01:23:21) 
[GCC 9.3.0]
numpy 1.21.2  scipy 1.6.2
Date: Tue Sep 27 23:11:28 2022
PySCF version 2.0.1
PySCF path  /home/yangjunjie/packages/pyscf/pyscf-main
GIT ORIG_HEAD 14b880cdc4bf7bb64f3989a147c0b04622efc498
GIT HEAD (branch master) 9d5b5bd309d1cc55fbd1a0ec76e26b5b0c7f76af

[ENV] PYSCF_MAX_MEMORY 127949
[ENV] PYSCF_TMPDIR /scratch/global/yangjunjie/
[CONFIG] conf_file /home/yangjunjie/.pyscf_conf.py
[INPUT] verbose = 5
[INPUT] max_memory = 127949 
[INPUT] num. atoms = 16
[INPUT] num. electrons = 68
[INPUT] charge = 0
[INPUT] spin (= nelec alpha-beta = 2S) = 0
[INPUT] symmetry False subgroup None
[INPUT] Mole.unit = angstrom
[INPUT]  1 C      0.000000010000   1.164910820000   1.047187800000 AA    0.000000018897   2.201362409343   1.978898142986 Bohr
[INPUT]  2 C      0.000000000000   1.198043070000   2.430196150000 AA    0.000000000000   2.263973287733   4.592405152472 Bohr
[INPUT]  3 C     -0.000000010000  -0.012348930000   3.120204410000 AA   -0.000000018897  -0.023336095631   5.896331787560 Bohr
[INPUT]  4 C     -0.000000010000  -1.210277900000   2.407137150000 AA   -0.000000018897  -2.287093765614   4.548829957766 Bohr
[INPUT]  5 C      0.000000000000  -1.150720840000   1.025657670000 AA    0.000000000000  -2.174547233429   1.938212093860 Bohr
[INPUT]  6 N      0.000000010000   0.013685910000   0.382788530000 AA    0.000000018897   0.025862621665   0.723365485325 Bohr
[INPUT]  7 C     -0.000000010000   0.003710630000  -1.719455830000 AA   -0.000000018897   0.007012074450  -3.249300601987 Bohr
[INPUT]  8 H      0.000000020000   2.068760430000   0.441683560000 AA    0.000000037795   3.909390630037   0.834660962123 Bohr
[INPUT]  9 H      0.000000000000   2.147928720000   2.947773730000 AA    0.000000000000   4.058997015888   5.570485026888 Bohr
[INPUT] 10 H     -0.000000010000  -0.022437820000   4.201585800000 AA   -0.000000018897  -0.042401334632   7.939846450862 Bohr
[INPUT] 11 H     -0.000000020000  -2.169526570000   2.907358340000 AA   -0.000000037795  -4.099811037267   5.494111008570 Bohr
[INPUT] 12 H      0.000000000000  -2.042375620000   0.401488020000 AA    0.000000000000  -3.859530565289   0.758702400094 Bohr
[INPUT] 13 H     -0.000000030000   1.078318620000  -1.647957650000 AA   -0.000000056692   2.037726866819  -3.114188623382 Bohr
[INPUT] 14 H     -0.931469860000  -0.531338450000  -1.637670930000 AA   -1.760222928687  -1.004084149951  -3.094749539862 Bohr
[INPUT] 15 H      0.931469900000  -0.531338410000  -1.637670930000 AA    1.760223004276  -1.004084074362  -3.094749539862 Bohr
[INPUT] 16 Cl    -0.000000010000   0.003268950000  -3.896560310000 AA   -0.000000018897   0.006177420215  -7.363431813750 Bohr
[INPUT] ---------------- BASIS SET ---------------- 
[INPUT] l, kappa, [nprim/nctr], expnt,             c_1 c_2 ...
[INPUT] H
[INPUT] 0    0    [3    /1   ]  18.731137         0.0334946
                                2.8253937         0.23472695
                                0.6401217         0.81375733
[INPUT] 0    0    [1    /1   ]  0.1612778            1
[INPUT] N
[INPUT] 0    0    [6    /1   ]  4173.511          0.0018348
                                627.4579          0.013995
                                142.9021          0.068587
                                40.23433          0.232241
                                12.82021          0.46907
                                4.390437          0.360455
[INPUT] 0    0    [3    /1   ]  11.626358         -0.114961
                                2.71628           -0.169118
                                0.772218          1.145852
[INPUT] 0    0    [1    /1   ]  0.2120313            1
[INPUT] 1    0    [3    /1   ]  11.626358         0.06758
                                2.71628           0.323907
                                0.772218          0.740895
[INPUT] 1    0    [1    /1   ]  0.2120313            1
[INPUT] 2    0    [1    /1   ]  0.8                  1
[INPUT] C
[INPUT] 0    0    [6    /1   ]  3047.5249         0.0018347
                                457.36951         0.0140373
                                103.94869         0.0688426
                                29.210155         0.2321844
                                9.286663          0.4679413
                                3.163927          0.362312
[INPUT] 0    0    [3    /1   ]  7.8682724         -0.1193324
                                1.8812885         -0.1608542
                                0.5442493         1.1434564
[INPUT] 0    0    [1    /1   ]  0.1687144            1
[INPUT] 1    0    [3    /1   ]  7.8682724         0.0689991
                                1.8812885         0.316424
                                0.5442493         0.7443083
[INPUT] 1    0    [1    /1   ]  0.1687144            1
[INPUT] 2    0    [1    /1   ]  0.8                  1
[INPUT] Cl
[INPUT] 0    0    [6    /1   ]  25180.1           0.001833
                                3780.35           0.014034
                                860.474           0.069097
                                242.145           0.237452
                                77.3349           0.483034
                                26.247            0.339856
[INPUT] 0    0    [6    /1   ]  491.765           -0.0022974
                                116.984           -0.030714
                                37.4153           -0.112528
                                13.7834           0.045016
                                5.45215           0.589353
                                2.22588           0.465206
[INPUT] 0    0    [3    /1   ]  3.18649           -0.25183
                                1.14427           0.061589
                                0.420377          1.06018
[INPUT] 0    0    [1    /1   ]  0.142657             1
[INPUT] 1    0    [6    /1   ]  491.765           0.0039894
                                116.984           0.030318
                                37.4153           0.12988
                                13.7834           0.327951
                                5.45215           0.453527
                                2.22588           0.252154
[INPUT] 1    0    [3    /1   ]  3.18649           -0.014299
                                1.14427           0.323572
                                0.420377          0.743507
[INPUT] 1    0    [1    /1   ]  0.142657             1
[INPUT] 2    0    [1    /1   ]  0.75                 1

nuclear repulsion = 379.450550980045
number of shells = 66
number of NR pGTOs = 272
number of NR cGTOs = 132
basis = 631g*
ecp = {}
CPU time:         0.37


******** <class 'pyscf.dft.rks.RKS'> ********
method = RKS
initial guess = minao
damping factor = 0
level_shift factor = 0
DIIS = <class 'pyscf.scf.diis.CDIIS'>
diis_start_cycle = 1
diis_space = 8
SCF conv_tol = 1e-09
SCF conv_tol_grad = None
SCF max_cycles = 50
direct_scf = True
direct_scf_tol = 1e-13
chkfile to save SCF result = /scratch/global/yangjunjie/tmpf9bhmtmg
max_memory 127949 MB (current use 81 MB)
XC library pyscf.dft.libxc version 5.2.0
    S. Lehtola, C. Steigemann, M. J. Oliveira, and M. A. Marques, SoftwareX 7, 1 (2018)
XC functionals = b3lyp
    P. A. M. Dirac, Math. Proc. Cambridge Philos. Soc. 26, 376 (1930)
    F. Bloch, Z. Phys. 57, 545 (1929)
    A. D. Becke, Phys. Rev. A 38, 3098 (1988)
    C. Lee, W. Yang, and R. G. Parr, Phys. Rev. B 37, 785 (1988)
    B. Miehlich, A. Savin, H. Stoll, and H. Preuss, Chem. Phys. Lett. 157, 200 (1989)
    S. H. Vosko, L. Wilk, and M. Nusair, Can. J. Phys. 58, 1200 (1980)
radial grids: 
    Treutler-Ahlrichs [JCP 102, 346 (1995); DOI:10.1063/1.469408] (M4) radial grids
    
becke partition: Becke, JCP 88, 2547 (1988); DOI:10.1063/1.454033
pruning grids: <function nwchem_prune at 0x7f4e40fd5ee0>
grids dens level: 3
symmetrized grids: False
atomic radii adjust function: <function treutler_atomic_radii_adjust at 0x7f4e40fd5e50>
small_rho_cutoff = 1e-07
Set gradient conv threshold to 3.16228e-05
atom C rad-grids = 75, ang-grids = [ 50  50  50  50  50  50  50  50  50  50  50  50  50  50  50  50  50  50
  50  50  50  50  50  86  86  86  86  86  86  86  86  86  86 266 266 266
 266 266 266 266 302 302 302 302 302 302 302 302 302 302 302 302 302 302
 302 302 302 302 302 302 266 266 266 266 266 266 266 266 266 266 266 266
 266 266 266]
atom N rad-grids = 75, ang-grids = [ 50  50  50  50  50  50  50  50  50  50  50  50  50  50  50  50  50  50
  50  50  50  50  50  86  86  86  86  86  86  86  86  86 266 266 266 266
 266 266 266 302 302 302 302 302 302 302 302 302 302 302 302 302 302 302
 302 302 302 302 266 266 266 266 266 266 266 266 266 266 266 266 266 266
 266 266 266]
atom H rad-grids = 50, ang-grids = [ 50  50  50  50  50  50  50  50  50  50  50  50  50  50  86  86  86  86
 266 266 266 266 302 302 302 302 302 302 302 302 302 302 302 302 302 266
 266 266 266 266 266 266 266 266 266 266 266 266 266 266]
atom Cl rad-grids = 80, ang-grids = [ 50  50  50  50  50  50  50  50  50  50  50  50  50  50  50  50  50  50
  50  50  50  50  50  50  86  86  86  86  86  86  86  86  86  86  86  86
  86 350 350 350 350 350 350 350 350 350 434 434 434 434 434 434 434 434
 434 434 434 434 434 434 434 434 434 434 350 350 350 350 350 350 350 350
 350 350 350 350 350 350 350 350]
tot grids = 196530
Drop grids 33517
    CPU time for setting up grids      3.00 sec, wall time      0.13 sec
nelec by numeric integration = 67.97653772509311
    CPU time for vxc      6.16 sec, wall time      0.22 sec
E1 = -1772.1527251189905  Ecoul = 714.1104898051171  Exc = -70.3365856883924
init E= -748.928270022221
cond(S) = 6613.438747738931
    CPU time for initialize scf     16.79 sec, wall time      0.69 sec
  HOMO = -0.297111636240675  LUMO = -0.0996541063088741
  mo_energy =
[-1.01594045e+02 -1.44095991e+01 -1.02922322e+01 -1.02917063e+01
 -1.02902570e+01 -1.02865289e+01 -1.02861926e+01 -1.02817194e+01
 -9.53410385e+00 -7.28975064e+00 -7.28948035e+00 -7.28947914e+00
 -1.10537293e+00 -9.38285470e-01 -8.90624077e-01 -8.75962831e-01
 -7.72863972e-01 -7.13403170e-01 -7.05013325e-01 -5.78022959e-01
 -5.33451137e-01 -5.11193974e-01 -4.75613064e-01 -4.75152870e-01
 -4.59175594e-01 -4.49271707e-01 -4.33927064e-01 -3.97952911e-01
 -3.95400005e-01 -3.52329951e-01 -3.51497836e-01 -3.24338302e-01
 -2.99608940e-01 -2.97111636e-01 -9.96541063e-02 -7.88534816e-02
 -7.79145671e-02  5.23166385e-02  6.90242171e-02  6.93474651e-02
  9.41892605e-02  1.16091156e-01  1.25856675e-01  1.35363766e-01
  1.41915183e-01  1.68038112e-01  2.09056569e-01  2.38753067e-01
  2.59751922e-01  2.67053707e-01  3.46290241e-01  3.84057478e-01
  4.02728367e-01  4.12268647e-01  4.13504174e-01  4.59559450e-01
  4.68901938e-01  4.79575247e-01  4.91957737e-01  5.24201389e-01
  5.25653073e-01  5.36453861e-01  5.42000682e-01  5.51901009e-01
  5.57785434e-01  5.65976677e-01  5.92835619e-01  6.13849430e-01
  6.44751262e-01  6.48753285e-01  6.72213554e-01  7.51387796e-01
  7.65872998e-01  7.72713071e-01  7.89744798e-01  7.95591371e-01
  7.99212902e-01  8.02394033e-01  8.38086216e-01  8.58376715e-01
  8.62354387e-01  8.70233212e-01  8.76774576e-01  8.89274284e-01
  9.07168479e-01  9.56178037e-01  9.74467612e-01  9.89238964e-01
  1.03490295e+00  1.08622924e+00  1.12336112e+00  1.15405231e+00
  1.17867523e+00  1.25567291e+00  1.30635751e+00  1.35001695e+00
  1.40132994e+00  1.40732144e+00  1.41216279e+00  1.44280731e+00
  1.44339321e+00  1.45174042e+00  1.64743001e+00  1.65095502e+00
  1.65919497e+00  1.74803585e+00  1.76667674e+00  1.78416124e+00
  1.87141829e+00  1.88605082e+00  1.99064854e+00  2.06610236e+00
  2.07423331e+00  2.08895215e+00  2.09271797e+00  2.10366566e+00
  2.16299500e+00  2.16474429e+00  2.19061803e+00  2.23092182e+00
  2.24983572e+00  2.29825359e+00  2.47977021e+00  2.49320635e+00
  2.59106571e+00  2.61705571e+00  2.62677739e+00  2.65164991e+00
  2.69977810e+00  2.70070625e+00  2.96004743e+00  3.33177174e+00]
nelec by numeric integration = 68.00001276654422
    CPU time for vxc      5.89 sec, wall time      0.21 sec
E1 = -1780.1503255495954  Ecoul = 723.4577084797555  Exc = -70.78855564559568
cycle= 1 E= -748.030621735391  delta_E= 0.898  |g|= 0.42  |ddm|= 3.88
    CPU time for cycle= 1      6.39 sec, wall time      0.23 sec
  HOMO = -0.116570100092135  LUMO = -0.0520977616901058
  mo_energy =
[-1.01132779e+02 -1.43743828e+01 -1.02568386e+01 -1.02567012e+01
 -1.02317422e+01 -1.01660553e+01 -1.01370612e+01 -1.01369515e+01
 -9.11076085e+00 -6.86624485e+00 -6.86150547e+00 -6.86149124e+00
 -9.94247968e-01 -8.08605985e-01 -7.95366002e-01 -7.16721829e-01
 -6.61207422e-01 -6.49049326e-01 -5.72703556e-01 -5.51813387e-01
 -5.05032215e-01 -4.95491720e-01 -4.66770576e-01 -4.58263751e-01
 -4.40751883e-01 -4.26134614e-01 -4.23864143e-01 -3.84040272e-01
 -3.26148730e-01 -3.03497754e-01 -2.89354487e-01 -1.76114834e-01
 -1.16865483e-01 -1.16570100e-01 -5.20977617e-02 -3.22365784e-02
  4.57810557e-02  8.02552046e-02  9.41049129e-02  1.02496237e-01
  1.24806717e-01  1.25872256e-01  1.41511033e-01  1.56984262e-01
  1.68555191e-01  1.87531754e-01  2.43752079e-01  2.69981344e-01
  2.94909214e-01  3.03371768e-01  4.02445392e-01  4.39561031e-01
  4.79026777e-01  5.12774711e-01  5.27264657e-01  5.41472018e-01
  5.45112481e-01  5.62814536e-01  5.63834435e-01  5.80165389e-01
  5.85509610e-01  5.91514355e-01  5.93669292e-01  6.15988936e-01
  6.18847131e-01  6.23485827e-01  6.41584260e-01  6.53124938e-01
  6.85747647e-01  7.09176696e-01  7.66869767e-01  7.86248315e-01
  8.24597882e-01  8.25321849e-01  8.29632031e-01  8.36628174e-01
  8.99605168e-01  9.03295689e-01  9.07485857e-01  9.11268679e-01
  9.30359540e-01  9.83199189e-01  9.95628158e-01  1.04225381e+00
  1.06348875e+00  1.09942038e+00  1.11274984e+00  1.11436501e+00
  1.12319429e+00  1.13627801e+00  1.15048865e+00  1.18011219e+00
  1.22828768e+00  1.35160839e+00  1.36629868e+00  1.41775974e+00
  1.43497096e+00  1.46092901e+00  1.46531576e+00  1.47469622e+00
  1.47901702e+00  1.48758034e+00  1.69017585e+00  1.70711729e+00
  1.71078716e+00  1.77944970e+00  1.81291089e+00  1.85477859e+00
  1.92945900e+00  1.93480010e+00  2.05702769e+00  2.12479851e+00
  2.13040800e+00  2.14445954e+00  2.14922773e+00  2.15174976e+00
  2.21586474e+00  2.22323341e+00  2.24853473e+00  2.28599503e+00
  2.31078020e+00  2.33824017e+00  2.52229173e+00  2.54809539e+00
  2.65341427e+00  2.67756715e+00  2.68448562e+00  2.71880723e+00
  2.75980331e+00  2.77229030e+00  3.01760851e+00  3.39984075e+00]
nelec by numeric integration = 68.00001543088848
    CPU time for vxc      6.31 sec, wall time      0.23 sec
E1 = -1772.9008015108961  Ecoul = 715.6801232170122  Exc = -70.20944198156162
cycle= 2 E= -747.979569295401  delta_E= 0.0511  |g|= 0.61  |ddm|= 1.44
    CPU time for cycle= 2      6.81 sec, wall time      0.24 sec
  HOMO = -0.208442329930264  LUMO = -0.0492725189165151
  mo_energy =
[-1.01393473e+02 -1.43223153e+01 -1.02305710e+01 -1.02303641e+01
 -1.02303529e+01 -1.02120848e+01 -1.02120127e+01 -1.01714407e+01
 -9.32681752e+00 -7.08784563e+00 -7.08111059e+00 -7.08110938e+00
 -9.67198630e-01 -8.31604497e-01 -7.92374541e-01 -7.14638593e-01
 -6.59574505e-01 -6.58329341e-01 -6.34861944e-01 -5.57301419e-01
 -5.05991761e-01 -5.01453579e-01 -4.63812468e-01 -4.33334043e-01
 -4.32716828e-01 -4.10159144e-01 -4.05398973e-01 -3.96043133e-01
 -3.15514576e-01 -3.11943414e-01 -2.91678253e-01 -2.19508002e-01
 -2.08744662e-01 -2.08442330e-01 -4.92725189e-02 -3.59797428e-02
  3.61184814e-02  7.75557890e-02  1.08136146e-01  1.13366243e-01
  1.22175481e-01  1.36273712e-01  1.46527818e-01  1.59850792e-01
  1.90258891e-01  2.06448278e-01  2.47478752e-01  2.65899816e-01
  3.00198894e-01  3.04969216e-01  4.12499278e-01  4.38594716e-01
  4.72088072e-01  4.84608570e-01  5.14389234e-01  5.20093620e-01
  5.28951471e-01  5.49158686e-01  5.55488036e-01  5.61820872e-01
  5.67813405e-01  5.71150525e-01  5.80648581e-01  5.90235986e-01
  6.01950177e-01  6.02616366e-01  6.38894667e-01  6.42573967e-01
  6.71809976e-01  7.15996890e-01  7.70778570e-01  7.98147744e-01
  8.03225938e-01  8.09112762e-01  8.27201725e-01  8.50928097e-01
  8.89447092e-01  8.96757628e-01  9.19482249e-01  9.32780620e-01
  9.41307058e-01  9.84417194e-01  9.97521438e-01  1.00020639e+00
  1.01620885e+00  1.01855384e+00  1.02142161e+00  1.05779464e+00
  1.07534226e+00  1.11174733e+00  1.14241465e+00  1.18213160e+00
  1.22515931e+00  1.34940429e+00  1.36834375e+00  1.37884705e+00
  1.43148360e+00  1.44738973e+00  1.45228365e+00  1.48508776e+00
  1.49637234e+00  1.50044204e+00  1.69838159e+00  1.73079992e+00
  1.74649818e+00  1.79908533e+00  1.81193333e+00  1.85046481e+00
  1.91508497e+00  1.93324569e+00  2.04588072e+00  2.11996999e+00
  2.12152199e+00  2.14067918e+00  2.15540804e+00  2.16055008e+00
  2.23461313e+00  2.25574960e+00  2.28218261e+00  2.28393458e+00
  2.30269541e+00  2.34838799e+00  2.52888316e+00  2.54159796e+00
  2.64071048e+00  2.68074499e+00  2.68202965e+00  2.71415886e+00
  2.75992857e+00  2.76503797e+00  3.02610632e+00  3.39749543e+00]
nelec by numeric integration = 68.00001447931405
    CPU time for vxc      6.03 sec, wall time      0.22 sec
E1 = -1775.0703722184742  Ecoul = 717.9210027281516  Exc = -70.38971404976154
cycle= 3 E= -748.088532560039  delta_E= -0.109  |g|= 0.164  |ddm|= 0.839
    CPU time for cycle= 3      6.55 sec, wall time      0.23 sec
  HOMO = -0.225370049454596  LUMO = -0.0605815455745997
  mo_energy =
[-1.01432612e+02 -1.43879195e+01 -1.02528048e+01 -1.02526816e+01
 -1.02305286e+01 -1.02292898e+01 -1.02261853e+01 -1.02261587e+01
 -9.36004993e+00 -7.12157815e+00 -7.11493260e+00 -7.11492901e+00
 -9.93138999e-01 -8.39207415e-01 -8.04020601e-01 -7.37337386e-01
 -6.72333961e-01 -6.69524774e-01 -6.53864472e-01 -5.63326754e-01
 -5.19351006e-01 -5.04640853e-01 -4.71251430e-01 -4.52450128e-01
 -4.39792345e-01 -4.32725251e-01 -4.24520298e-01 -4.02744226e-01
 -3.40269167e-01 -3.23143148e-01 -3.00204809e-01 -2.44376773e-01
 -2.25637405e-01 -2.25370049e-01 -6.05815456e-02 -4.42431862e-02
  1.31573764e-02  7.42230354e-02  9.95097678e-02  1.08671875e-01
  1.12332217e-01  1.33073346e-01  1.43309806e-01  1.57629218e-01
  1.75595342e-01  1.95391439e-01  2.39398234e-01  2.62960718e-01
  2.90458754e-01  2.97515779e-01  4.04040375e-01  4.29216111e-01
  4.59333374e-01  4.76770301e-01  5.05161349e-01  5.06305986e-01
  5.15690532e-01  5.39319600e-01  5.47748153e-01  5.56059075e-01
  5.59160521e-01  5.68936096e-01  5.74502750e-01  5.79491320e-01
  5.91806578e-01  5.92789996e-01  6.24374275e-01  6.31515771e-01
  6.67141175e-01  6.99213912e-01  7.54720840e-01  7.90633980e-01
  7.96395188e-01  8.04450998e-01  8.23213556e-01  8.26128942e-01
  8.86875916e-01  8.91135144e-01  9.05307551e-01  9.11709951e-01
  9.23464662e-01  9.69749439e-01  9.80434182e-01  9.82779530e-01
  9.98313149e-01  1.00079477e+00  1.00746426e+00  1.04174271e+00
  1.06176727e+00  1.10268125e+00  1.14030945e+00  1.17370865e+00
  1.21344467e+00  1.33965012e+00  1.35080015e+00  1.36794770e+00
  1.42431978e+00  1.43916537e+00  1.44601813e+00  1.47117860e+00
  1.47649931e+00  1.48103050e+00  1.68501025e+00  1.70653953e+00
  1.71566971e+00  1.78353895e+00  1.79926193e+00  1.83626391e+00
  1.90901804e+00  1.92455230e+00  2.03685306e+00  2.10986919e+00
  2.11090703e+00  2.13254075e+00  2.13973532e+00  2.14113693e+00
  2.21109335e+00  2.23031707e+00  2.25720899e+00  2.27099558e+00
  2.29204349e+00  2.33133982e+00  2.51578808e+00  2.53233071e+00
  2.63174653e+00  2.66696435e+00  2.66728082e+00  2.70228729e+00
  2.74590643e+00  2.75260350e+00  3.00786005e+00  3.38426246e+00]
nelec by numeric integration = 68.0000142355106
    CPU time for vxc      5.87 sec, wall time      0.21 sec
E1 = -1776.4733925922803  Ecoul = 719.4143505343875  Exc = -70.48684902644719
cycle= 4 E= -748.095340104295  delta_E= -0.00681  |g|= 0.0458  |ddm|= 0.212
    CPU time for cycle= 4      6.42 sec, wall time      0.23 sec
  HOMO = -0.224726969424837  LUMO = -0.058518256582821
  mo_energy =
[-1.01424315e+02 -1.43689782e+01 -1.02547832e+01 -1.02545241e+01
 -1.02375920e+01 -1.02369268e+01 -1.02260857e+01 -1.02260331e+01
 -9.35435755e+00 -7.11564489e+00 -7.10898888e+00 -7.10897845e+00
 -9.86761432e-01 -8.38357841e-01 -8.02550789e-01 -7.38409993e-01
 -6.70121549e-01 -6.69608380e-01 -6.54189601e-01 -5.62957592e-01
 -5.17896356e-01 -5.04103248e-01 -4.70622654e-01 -4.51747600e-01
 -4.39498424e-01 -4.35622713e-01 -4.24887103e-01 -4.02115760e-01
 -3.38496383e-01 -3.21037183e-01 -2.99380458e-01 -2.42628322e-01
 -2.24988488e-01 -2.24726969e-01 -5.85182566e-02 -4.33228357e-02
  1.27859257e-02  7.44635030e-02  9.87394136e-02  1.08946335e-01
  1.13761593e-01  1.33357300e-01  1.43341192e-01  1.57709274e-01
  1.73865523e-01  1.95020897e-01  2.40297848e-01  2.63459865e-01
  2.92473278e-01  2.98261084e-01  4.04358409e-01  4.30804088e-01
  4.59318293e-01  4.77378927e-01  5.05710873e-01  5.06050736e-01
  5.16215422e-01  5.39526408e-01  5.49208653e-01  5.56747026e-01
  5.59646303e-01  5.69519489e-01  5.74672556e-01  5.79840421e-01
  5.91339865e-01  5.92063111e-01  6.26432689e-01  6.32055223e-01
  6.67233580e-01  6.99188948e-01  7.54394047e-01  7.90948559e-01
  7.96815254e-01  8.03674502e-01  8.23703557e-01  8.31209678e-01
  8.86936324e-01  8.91634610e-01  9.04502327e-01  9.09663594e-01
  9.22347803e-01  9.70466192e-01  9.81430231e-01  9.84538284e-01
  9.99674792e-01  1.00122134e+00  1.00830695e+00  1.04153375e+00
  1.06195243e+00  1.10395301e+00  1.14073695e+00  1.17490873e+00
  1.21494028e+00  1.34097891e+00  1.35128363e+00  1.36977394e+00
  1.42578150e+00  1.44030435e+00  1.44591633e+00  1.47298078e+00
  1.47960984e+00  1.48312840e+00  1.68769311e+00  1.70473975e+00
  1.71241998e+00  1.78587608e+00  1.80080896e+00  1.83577245e+00
  1.91004979e+00  1.92559513e+00  2.03728432e+00  2.11117449e+00
  2.11165315e+00  2.13354035e+00  2.13976766e+00  2.14285741e+00
  2.21138663e+00  2.22686204e+00  2.25382443e+00  2.27169771e+00
  2.29342514e+00  2.33412520e+00  2.51814108e+00  2.53315023e+00
  2.63263930e+00  2.66896981e+00  2.66903123e+00  2.70335066e+00
  2.74758142e+00  2.75441115e+00  3.01049194e+00  3.38571938e+00]
nelec by numeric integration = 68.00001452200124
    CPU time for vxc      5.96 sec, wall time      0.21 sec
E1 = -1776.3089396898408  Ecoul = 719.2386921305292  Exc = -70.47601102979436
cycle= 5 E= -748.095707609061  delta_E= -0.000368  |g|= 0.0211  |ddm|= 0.0474
    CPU time for cycle= 5      6.47 sec, wall time      0.23 sec
  HOMO = -0.225368424546881  LUMO = -0.0575615264563244
  mo_energy =
[-1.01423832e+02 -1.43726653e+01 -1.02527211e+01 -1.02525286e+01
 -1.02339475e+01 -1.02288107e+01 -1.02244714e+01 -1.02244080e+01
 -9.35440444e+00 -7.11568304e+00 -7.10896237e+00 -7.10894906e+00
 -9.86474179e-01 -8.36865238e-01 -8.01292222e-01 -7.37106333e-01
 -6.69228868e-01 -6.68549545e-01 -6.52923953e-01 -5.61755766e-01
 -5.16797821e-01 -5.03175972e-01 -4.69426545e-01 -4.50223543e-01
 -4.38275514e-01 -4.33219535e-01 -4.23211546e-01 -4.01057337e-01
 -3.37801660e-01 -3.20038447e-01 -2.98091339e-01 -2.42915828e-01
 -2.25629900e-01 -2.25368425e-01 -5.75615265e-02 -4.21039589e-02
  1.49654729e-02  7.54902453e-02  9.97197382e-02  1.09757599e-01
  1.14790278e-01  1.34152360e-01  1.44208969e-01  1.58497389e-01
  1.75122065e-01  1.95995962e-01  2.41350167e-01  2.64536473e-01
  2.93322748e-01  2.99249657e-01  4.05344665e-01  4.31772427e-01
  4.58677878e-01  4.78596452e-01  5.06339766e-01  5.06795337e-01
  5.16223721e-01  5.39990268e-01  5.50126727e-01  5.57908183e-01
  5.60510372e-01  5.70464181e-01  5.75736612e-01  5.80722841e-01
  5.92586991e-01  5.93418657e-01  6.27129838e-01  6.33147731e-01
  6.68450679e-01  7.00311596e-01  7.55683835e-01  7.91929346e-01
  7.97705211e-01  8.04983842e-01  8.24665238e-01  8.31067728e-01
  8.88069818e-01  8.92710329e-01  9.06040902e-01  9.11490920e-01
  9.23821920e-01  9.70557587e-01  9.81050871e-01  9.85141680e-01
  9.99315740e-01  1.00182678e+00  1.00867248e+00  1.04281409e+00
  1.06297878e+00  1.10496049e+00  1.14184094e+00  1.17595293e+00
  1.21613247e+00  1.34225789e+00  1.35166058e+00  1.37046978e+00
  1.42660241e+00  1.44157143e+00  1.44749821e+00  1.47411313e+00
  1.48044202e+00  1.48381231e+00  1.68842907e+00  1.70749757e+00
  1.71579977e+00  1.78682500e+00  1.80191923e+00  1.83775361e+00
  1.91125161e+00  1.92684368e+00  2.03885117e+00  2.11245677e+00
  2.11312811e+00  2.13488796e+00  2.14172638e+00  2.14403822e+00
  2.21324726e+00  2.22996684e+00  2.25689771e+00  2.27307176e+00
  2.29454710e+00  2.33500063e+00  2.51912617e+00  2.53454439e+00
  2.63397524e+00  2.66988783e+00  2.67013694e+00  2.70460554e+00
  2.74868101e+00  2.75553769e+00  3.01132353e+00  3.38684936e+00]
nelec by numeric integration = 68.0000144332329
    CPU time for vxc      6.00 sec, wall time      0.21 sec
E1 = -1776.268539919463  Ecoul = 719.1955800671407  Exc = -70.47341176041513
cycle= 6 E= -748.095820632693  delta_E= -0.000113  |g|= 0.00318  |ddm|= 0.019
    CPU time for cycle= 6      6.61 sec, wall time      0.24 sec
  HOMO = -0.2252599161857  LUMO = -0.0574236372384115
  mo_energy =
[-1.01423431e+02 -1.43721493e+01 -1.02520145e+01 -1.02518328e+01
 -1.02338464e+01 -1.02295458e+01 -1.02246474e+01 -1.02246011e+01
 -9.35406563e+00 -7.11533155e+00 -7.10861929e+00 -7.10860566e+00
 -9.86269344e-01 -8.36927598e-01 -8.01135421e-01 -7.37222267e-01
 -6.69089419e-01 -6.68460413e-01 -6.52858035e-01 -5.61666325e-01
 -5.16659409e-01 -5.03118036e-01 -4.69348957e-01 -4.50235783e-01
 -4.38271564e-01 -4.33422404e-01 -4.23271369e-01 -4.00998836e-01
 -3.37675067e-01 -3.20020758e-01 -2.97997119e-01 -2.42788521e-01
 -2.25520025e-01 -2.25259916e-01 -5.74236372e-02 -4.20070743e-02
  1.49072166e-02  7.54476379e-02  9.97065650e-02  1.09810621e-01
  1.14906207e-01  1.34214433e-01  1.44202743e-01  1.58488631e-01
  1.75022391e-01  1.96009081e-01  2.41364496e-01  2.64566302e-01
  2.93430585e-01  2.99333351e-01  4.05404468e-01  4.31812692e-01
  4.58900312e-01  4.78671255e-01  5.06318239e-01  5.06852356e-01
  5.16304308e-01  5.40020497e-01  5.50270496e-01  5.57958970e-01
  5.60497210e-01  5.70387002e-01  5.75785391e-01  5.80693074e-01
  5.92598359e-01  5.93415070e-01  6.27260769e-01  6.33226634e-01
  6.68407287e-01  7.00423996e-01  7.55707917e-01  7.92061171e-01
  7.97776694e-01  8.04912848e-01  8.24688112e-01  8.31283928e-01
  8.88035060e-01  8.92724003e-01  9.06085035e-01  9.11351603e-01
  9.23786847e-01  9.70659381e-01  9.81171259e-01  9.85274757e-01
  9.99476126e-01  1.00188255e+00  1.00878279e+00  1.04282500e+00
  1.06302631e+00  1.10504539e+00  1.14180749e+00  1.17596157e+00
  1.21624410e+00  1.34230990e+00  1.35169204e+00  1.37049669e+00
  1.42669943e+00  1.44156340e+00  1.44754361e+00  1.47432056e+00
  1.48056284e+00  1.48388950e+00  1.68854698e+00  1.70733409e+00
  1.71551582e+00  1.78695882e+00  1.80197205e+00  1.83767159e+00
  1.91120908e+00  1.92693520e+00  2.03888735e+00  2.11253069e+00
  2.11315796e+00  2.13487594e+00  2.14171353e+00  2.14421886e+00
  2.21325035e+00  2.22970546e+00  2.25665172e+00  2.27320521e+00
  2.29463473e+00  2.33516078e+00  2.51923564e+00  2.53461545e+00
  2.63402249e+00  2.67010840e+00  2.67026741e+00  2.70477193e+00
  2.74884960e+00  2.75560931e+00  3.01156464e+00  3.38702832e+00]
nelec by numeric integration = 68.00001447677776
    CPU time for vxc      6.42 sec, wall time      0.24 sec
E1 = -1776.2619049199895  Ecoul = 719.1883708220365  Exc = -70.4728398515287
cycle= 7 E= -748.095822969437  delta_E= -2.34e-06  |g|= 0.00113  |ddm|= 0.00427
    CPU time for cycle= 7      6.98 sec, wall time      0.26 sec
  HOMO = -0.225385821634759  LUMO = -0.0574414307779138
  mo_energy =
[-1.01423862e+02 -1.43721027e+01 -1.02523366e+01 -1.02521429e+01
 -1.02338248e+01 -1.02294499e+01 -1.02244907e+01 -1.02244391e+01
 -9.35439853e+00 -7.11567562e+00 -7.10896081e+00 -7.10894722e+00
 -9.86356967e-01 -8.36908036e-01 -8.01195292e-01 -7.37262313e-01
 -6.69115312e-01 -6.68499858e-01 -6.52895880e-01 -5.61693997e-01
 -5.16687766e-01 -5.03112805e-01 -4.69388121e-01 -4.50234917e-01
 -4.38266081e-01 -4.33376826e-01 -4.23268928e-01 -4.01001625e-01
 -3.37700025e-01 -3.20011378e-01 -2.98042760e-01 -2.42856853e-01
 -2.25645876e-01 -2.25385822e-01 -5.74414308e-02 -4.20420281e-02
  1.48958294e-02  7.54598190e-02  9.97196231e-02  1.09798965e-01
  1.14891097e-01  1.34206605e-01  1.44215916e-01  1.58501079e-01
  1.75050421e-01  1.96009790e-01  2.41349329e-01  2.64566179e-01
  2.93405207e-01  2.99319241e-01  4.05404390e-01  4.31780318e-01
  4.58799281e-01  4.78631629e-01  5.06284988e-01  5.06827152e-01
  5.16243276e-01  5.39981153e-01  5.50220186e-01  5.57937157e-01
  5.60446427e-01  5.70380616e-01  5.75755714e-01  5.80672673e-01
  5.92596127e-01  5.93397302e-01  6.27231959e-01  6.33199375e-01
  6.68426026e-01  7.00377764e-01  7.55674967e-01  7.92013367e-01
  7.97741429e-01  8.04945199e-01  8.24694666e-01  8.31264578e-01
  8.88051939e-01  8.92732441e-01  9.06064639e-01  9.11366281e-01
  9.23775141e-01  9.70556084e-01  9.81031581e-01  9.85244329e-01
  9.99342499e-01  1.00183280e+00  1.00870979e+00  1.04281527e+00
  1.06300318e+00  1.10501882e+00  1.14181658e+00  1.17595863e+00
  1.21621203e+00  1.34227665e+00  1.35163445e+00  1.37048721e+00
  1.42667375e+00  1.44157300e+00  1.44752420e+00  1.47423114e+00
  1.48053262e+00  1.48388606e+00  1.68852153e+00  1.70735850e+00
  1.71557049e+00  1.78692195e+00  1.80196748e+00  1.83768720e+00
  1.91122237e+00  1.92688868e+00  2.03885658e+00  2.11249027e+00
  2.11314543e+00  2.13487953e+00  2.14170720e+00  2.14415400e+00
  2.21324328e+00  2.22976280e+00  2.25670562e+00  2.27316138e+00
  2.29463441e+00  2.33510706e+00  2.51919593e+00  2.53457927e+00
  2.63400361e+00  2.67006771e+00  2.67024393e+00  2.70472879e+00
  2.74880699e+00  2.75560929e+00  3.01151615e+00  3.38699878e+00]
nelec by numeric integration = 68.00001447479117
    CPU time for vxc      6.02 sec, wall time      0.21 sec
E1 = -1776.2665108324327  Ecoul = 719.1932304374818  Exc = -70.47309388908621
cycle= 8 E= -748.095823303992  delta_E= -3.35e-07  |g|= 0.000306  |ddm|= 0.00137
    CPU time for cycle= 8      6.53 sec, wall time      0.23 sec
  HOMO = -0.22534398684827  LUMO = -0.0574565524882297
  mo_energy =
[-1.01423807e+02 -1.43721271e+01 -1.02522818e+01 -1.02520910e+01
 -1.02338829e+01 -1.02294798e+01 -1.02245291e+01 -1.02244765e+01
 -9.35433766e+00 -7.11561513e+00 -7.10890095e+00 -7.10888740e+00
 -9.86356501e-01 -8.36938286e-01 -8.01198130e-01 -7.37234181e-01
 -6.69126461e-01 -6.68498060e-01 -6.52892157e-01 -5.61705672e-01
 -5.16700971e-01 -5.03131866e-01 -4.69393913e-01 -4.50235044e-01
 -4.38287955e-01 -4.33374749e-01 -4.23271392e-01 -4.01021508e-01
 -3.37696690e-01 -3.20035934e-01 -2.98047805e-01 -2.42835880e-01
 -2.25603867e-01 -2.25343987e-01 -5.74565525e-02 -4.20519564e-02
  1.49051756e-02  7.54434628e-02  9.97192107e-02  1.09794050e-01
  1.14876806e-01  1.34200579e-01  1.44204355e-01  1.58488117e-01
  1.75057510e-01  1.96011774e-01  2.41339644e-01  2.64548505e-01
  2.93394466e-01  2.99307734e-01  4.05396365e-01  4.31773376e-01
  4.58821640e-01  4.78628213e-01  5.06298721e-01  5.06823889e-01
  5.16258761e-01  5.39987326e-01  5.50216055e-01  5.57928665e-01
  5.60452565e-01  5.70368291e-01  5.75750959e-01  5.80667729e-01
  5.92588212e-01  5.93391839e-01  6.27232206e-01  6.33193817e-01
  6.68406550e-01  7.00387644e-01  7.55681862e-01  7.92015817e-01
  7.97743329e-01  8.04915546e-01  8.24679173e-01  8.31262244e-01
  8.88033050e-01  8.92713935e-01  9.06068524e-01  9.11377148e-01
  9.23783996e-01  9.70584140e-01  9.81075251e-01  9.85242598e-01
  9.99383498e-01  1.00184535e+00  1.00872507e+00  1.04281709e+00
  1.06300287e+00  1.10500833e+00  1.14179640e+00  1.17594392e+00
  1.21619914e+00  1.34226361e+00  1.35165906e+00  1.37047584e+00
  1.42666424e+00  1.44154693e+00  1.44750709e+00  1.47423432e+00
  1.48052110e+00  1.48388283e+00  1.68850940e+00  1.70735481e+00
  1.71556956e+00  1.78691832e+00  1.80194871e+00  1.83766977e+00
  1.91119636e+00  1.92688075e+00  2.03884255e+00  2.11248024e+00
  2.11313056e+00  2.13485466e+00  2.14170345e+00  2.14415271e+00
  2.21323840e+00  2.22976242e+00  2.25670684e+00  2.27315535e+00
  2.29461062e+00  2.33510079e+00  2.51918379e+00  2.53456935e+00
  2.63398594e+00  2.67005844e+00  2.67022899e+00  2.70472008e+00
  2.74879835e+00  2.75558656e+00  3.01150911e+00  3.38698560e+00]
nelec by numeric integration = 68.00001447572035
    CPU time for vxc      5.88 sec, wall time      0.21 sec
E1 = -1776.2658176280918  Ecoul = 719.1925174055373  Exc = -70.47307408504427
cycle= 9 E= -748.095823327554  delta_E= -2.36e-08  |g|= 7.54e-05  |ddm|= 0.000338
    CPU time for cycle= 9      6.41 sec, wall time      0.23 sec
  HOMO = -0.225353311504807  LUMO = -0.0574508553716555
  mo_energy =
[-1.01423834e+02 -1.43721218e+01 -1.02522797e+01 -1.02520880e+01
 -1.02338504e+01 -1.02294837e+01 -1.02245344e+01 -1.02244839e+01
 -9.35435895e+00 -7.11563705e+00 -7.10892271e+00 -7.10890916e+00
 -9.86353084e-01 -8.36930901e-01 -8.01197572e-01 -7.37242745e-01
 -6.69124560e-01 -6.68498662e-01 -6.52893729e-01 -5.61701715e-01
 -5.16697409e-01 -5.03132257e-01 -4.69394008e-01 -4.50235754e-01
 -4.38280377e-01 -4.33378590e-01 -4.23271869e-01 -4.01018538e-01
 -3.37698620e-01 -3.20029307e-01 -2.98047372e-01 -2.42841442e-01
 -2.25613200e-01 -2.25353312e-01 -5.74508554e-02 -4.20514418e-02
  1.48995007e-02  7.54454792e-02  9.97181469e-02  1.09793419e-01
  1.14879712e-01  1.34202139e-01  1.44204151e-01  1.58489273e-01
  1.75054437e-01  1.96010428e-01  2.41341792e-01  2.64552248e-01
  2.93396071e-01  2.99309195e-01  4.05397261e-01  4.31774369e-01
  4.58817747e-01  4.78629794e-01  5.06294496e-01  5.06823978e-01
  5.16255020e-01  5.39986072e-01  5.50216545e-01  5.57929045e-01
  5.60452114e-01  5.70369834e-01  5.75751806e-01  5.80668838e-01
  5.92588613e-01  5.93394404e-01  6.27231943e-01  6.33194185e-01
  6.68409171e-01  7.00385486e-01  7.55679604e-01  7.92014915e-01
  7.97741978e-01  8.04923283e-01  8.24678444e-01  8.31262979e-01
  8.88035717e-01  8.92717070e-01  9.06067252e-01  9.11372371e-01
  9.23780669e-01  9.70577320e-01  9.81064807e-01  9.85242477e-01
  9.99373849e-01  1.00184165e+00  1.00872092e+00  1.04281461e+00
  1.06300101e+00  1.10501088e+00  1.14179901e+00  1.17594511e+00
  1.21620255e+00  1.34226685e+00  1.35165227e+00  1.37047780e+00
  1.42666555e+00  1.44155128e+00  1.44751202e+00  1.47423554e+00
  1.48052441e+00  1.48388267e+00  1.68851146e+00  1.70735253e+00
  1.71556489e+00  1.78691969e+00  1.80195325e+00  1.83767232e+00
  1.91120192e+00  1.92688165e+00  2.03884713e+00  2.11248205e+00
  2.11313282e+00  2.13486050e+00  2.14170338e+00  2.14415455e+00
  2.21323924e+00  2.22975889e+00  2.25670307e+00  2.27315566e+00
  2.29461682e+00  2.33510343e+00  2.51918807e+00  2.53457150e+00
  2.63399045e+00  2.67006073e+00  2.67023216e+00  2.70472153e+00
  2.74880105e+00  2.75559263e+00  3.01151191e+00  3.38698868e+00]
nelec by numeric integration = 68.00001447618232
    CPU time for vxc      5.87 sec, wall time      0.21 sec
E1 = -1776.265931864275  Ecoul = 719.1926394891566  Exc = -70.47308193380455
cycle= 10 E= -748.095823328878  delta_E= -1.32e-09  |g|= 2.56e-05  |ddm|= 9.39e-05
    CPU time for cycle= 10      6.40 sec, wall time      0.23 sec
  HOMO = -0.225355090409418  LUMO = -0.0574519477966777
  mo_energy =
[-1.01423835e+02 -1.43721255e+01 -1.02522791e+01 -1.02520881e+01
 -1.02338615e+01 -1.02294818e+01 -1.02245326e+01 -1.02244808e+01
 -9.35436081e+00 -7.11563891e+00 -7.10892448e+00 -7.10891093e+00
 -9.86353796e-01 -8.36932411e-01 -8.01196828e-01 -7.37244599e-01
 -6.69124806e-01 -6.68499416e-01 -6.52894160e-01 -5.61701999e-01
 -5.16697922e-01 -5.03130961e-01 -4.69392910e-01 -4.50236493e-01
 -4.38282135e-01 -4.33379562e-01 -4.23272579e-01 -4.01018513e-01
 -3.37699439e-01 -3.20030751e-01 -2.98046480e-01 -2.42843131e-01
 -2.25614972e-01 -2.25355090e-01 -5.74519478e-02 -4.20508597e-02
  1.48984620e-02  7.54454780e-02  9.97178668e-02  1.09794136e-01
  1.14879539e-01  1.34201912e-01  1.44204659e-01  1.58489422e-01
  1.75053347e-01  1.96010068e-01  2.41341396e-01  2.64551999e-01
  2.93396339e-01  2.99309368e-01  4.05397086e-01  4.31774633e-01
  4.58817045e-01  4.78629748e-01  5.06293242e-01  5.06823384e-01
  5.16253846e-01  5.39985001e-01  5.50217236e-01  5.57929751e-01
  5.60450992e-01  5.70369328e-01  5.75751590e-01  5.80667866e-01
  5.92588180e-01  5.93393273e-01  6.27231384e-01  6.33194641e-01
  6.68408883e-01  7.00385175e-01  7.55679136e-01  7.92015477e-01
  7.97741910e-01  8.04921808e-01  8.24679603e-01  8.31262004e-01
  8.88035377e-01  8.92716601e-01  9.06066839e-01  9.11371183e-01
  9.23779690e-01  9.70575951e-01  9.81063001e-01  9.85242072e-01
  9.99371994e-01  1.00184071e+00  1.00872008e+00  1.04281421e+00
  1.06300112e+00  1.10501089e+00  1.14179923e+00  1.17594550e+00
  1.21620211e+00  1.34226679e+00  1.35165049e+00  1.37047723e+00
  1.42666594e+00  1.44155067e+00  1.44751143e+00  1.47423620e+00
  1.48052358e+00  1.48388201e+00  1.68851116e+00  1.70735185e+00
  1.71556395e+00  1.78691950e+00  1.80195253e+00  1.83767153e+00
  1.91120112e+00  1.92688252e+00  2.03884657e+00  2.11248249e+00
  2.11313274e+00  2.13485942e+00  2.14170279e+00  2.14415469e+00
  2.21323836e+00  2.22975804e+00  2.25670224e+00  2.27315639e+00
  2.29461532e+00  2.33510316e+00  2.51918736e+00  2.53457178e+00
  2.63398991e+00  2.67006042e+00  2.67023179e+00  2.70472190e+00
  2.74880082e+00  2.75559126e+00  3.01151153e+00  3.38698838e+00]
nelec by numeric integration = 68.00001447626448
    CPU time for vxc      5.89 sec, wall time      0.21 sec
E1 = -1776.2660003603823  Ecoul = 719.192712671968  Exc = -70.47308662064817
cycle= 11 E= -748.095823329018  delta_E= -1.39e-10  |g|= 1.09e-05  |ddm|= 2.74e-05
    CPU time for cycle= 11      6.41 sec, wall time      0.23 sec
  HOMO = -0.225350998345874  LUMO = -0.0574515423630626
  mo_energy =
[-1.01423823e+02 -1.43721275e+01 -1.02522789e+01 -1.02520870e+01
 -1.02338551e+01 -1.02294839e+01 -1.02245325e+01 -1.02244821e+01
 -9.35435092e+00 -7.11562876e+00 -7.10891439e+00 -7.10890084e+00
 -9.86354588e-01 -8.36931491e-01 -8.01197006e-01 -7.37242465e-01
 -6.69124624e-01 -6.68498226e-01 -6.52893297e-01 -5.61701511e-01
 -5.16697617e-01 -5.03131120e-01 -4.69393113e-01 -4.50237231e-01
 -4.38281155e-01 -4.33380411e-01 -4.23273061e-01 -4.01018146e-01
 -3.37699216e-01 -3.20030197e-01 -2.98046601e-01 -2.42841370e-01
 -2.25610876e-01 -2.25350998e-01 -5.74515424e-02 -4.20509407e-02
  1.48991643e-02  7.54456193e-02  9.97174984e-02  1.09793879e-01
  1.14879688e-01  1.34201982e-01  1.44204418e-01  1.58489534e-01
  1.75052824e-01  1.96009677e-01  2.41341532e-01  2.64552414e-01
  2.93396057e-01  2.99309422e-01  4.05396960e-01  4.31774581e-01
  4.58819380e-01  4.78629796e-01  5.06294656e-01  5.06824094e-01
  5.16255672e-01  5.39986424e-01  5.50217148e-01  5.57929656e-01
  5.60452543e-01  5.70370262e-01  5.75752204e-01  5.80669111e-01
  5.92588729e-01  5.93394059e-01  6.27231019e-01  6.33194569e-01
  6.68409282e-01  7.00385376e-01  7.55679650e-01  7.92015512e-01
  7.97742506e-01  8.04923062e-01  8.24679371e-01  8.31261362e-01
  8.88035845e-01  8.92717117e-01  9.06066845e-01  9.11371246e-01
  9.23780174e-01  9.70579345e-01  9.81067523e-01  9.85242457e-01
  9.99376134e-01  1.00184219e+00  1.00872219e+00  1.04281429e+00
  1.06300140e+00  1.10501091e+00  1.14179945e+00  1.17594521e+00
  1.21620236e+00  1.34226698e+00  1.35165269e+00  1.37047740e+00
  1.42666577e+00  1.44155114e+00  1.44751220e+00  1.47423602e+00
  1.48052328e+00  1.48388122e+00  1.68851087e+00  1.70735122e+00
  1.71556293e+00  1.78691898e+00  1.80195279e+00  1.83767178e+00
  1.91120168e+00  1.92688246e+00  2.03884718e+00  2.11248248e+00
  2.11313289e+00  2.13486007e+00  2.14170246e+00  2.14415460e+00
  2.21323811e+00  2.22975705e+00  2.25670119e+00  2.27315631e+00
  2.29461601e+00  2.33510290e+00  2.51918748e+00  2.53457191e+00
  2.63399042e+00  2.67006040e+00  2.67023190e+00  2.70472200e+00
  2.74880089e+00  2.75559177e+00  3.01151138e+00  3.38698857e+00]
nelec by numeric integration = 68.00001447630326
    CPU time for vxc      5.87 sec, wall time      0.21 sec
E1 = -1776.2659020885121  Ecoul = 719.1926065947971  Exc = -70.47307881529191
Extra cycle  E= -748.095823328962  delta_E= 5.55e-11  |g|= 1.76e-05  |ddm|= 3.21e-05
    CPU time for scf_cycle     95.15 sec, wall time      3.50 sec
    CPU time for SCF     95.15 sec, wall time      3.50 sec
converged SCF energy = -748.095823328962
Converting <class 'pyscf.dft.rks.RKS'> to RHF


******** <class 'pyscf.tdscf.rks.TDA'> for <class 'pyscf.dft.rks.RKS'> ********
nstates = 10 singlet
wfnsym = None
conv_tol = 1e-09
eigh lindep = 1e-12
eigh level_shift = 0
eigh max_space = 50
eigh max_cycle = 100
chkfile = /scratch/global/yangjunjie/tmpf9bhmtmg
max_memory 127949 MB (current use 607 MB)


davidson 0 10  |r|= 0.219  e= [0.14896624 0.14921753 0.15565902 0.16454968 0.16475614 0.16919951
 0.19736468 0.19772603 0.27862049 0.31953466]  max|de|= 0.32  lindep=    1
davidson 1 20  |r|= 0.0733  e= [0.14888624 0.14893936 0.15306788 0.16450733 0.1647286  0.16701861
 0.19526008 0.19559628 0.22116035 0.26503426]  max|de|= -0.0575  lindep= 0.73
Old state -> New state
    2     ->     9 
davidson 2 30  |r|= 0.072  e= [0.14888591 0.14891244 0.15283298 0.16450231 0.16472803 0.16696168
 0.19505545 0.19538254 0.21358787 0.25453629]  max|de|= 0.101  lindep= 0.817
davidson 3 40  |r|= 0.0305  e= [0.14888591 0.14891019 0.15283007 0.16450202 0.16472802 0.16695978
 0.19504805 0.19537386 0.2127987  0.24285799]  max|de|= -0.0117  lindep= 0.785
root 0 converged  |r|= 8.54e-07  e= 0.14888590909560206  max|de|= -6.57e-11
root 4 converged  |r|= 2.2e-06  e= 0.16472801695882802  max|de|= -3.85e-10
davidson 4 50  |r|= 0.00683  e= [0.14888591 0.14891015 0.15283003 0.16450201 0.16472802 0.16695974
 0.19504788 0.19537352 0.21277027 0.24104486]  max|de|= -0.00181  lindep= 0.812
root 2 converged  |r|= 1.6e-06  e= 0.15283002984493038  max|de|= -5.52e-10
root 3 converged  |r|= 2.25e-06  e= 0.1645020099309391  max|de|= -1.71e-10
root 5 converged  |r|= 2.76e-06  e= 0.16695974097354932  max|de|= -4.47e-10
davidson 5 58  |r|= 0.00167  e= [0.14888591 0.14891014 0.15283003 0.16450201 0.16472802 0.16695974
 0.19504788 0.19537349 0.21276829 0.24096255]  max|de|= -8.23e-05  lindep= 0.842
root 1 converged  |r|= 1.21e-06  e= 0.14891014392694785  max|de|= -5.77e-11
root 6 converged  |r|= 1.75e-06  e= 0.1950478779393175  max|de|= -7.97e-11
davidson 6 63  |r|= 0.000497  e= [0.14888591 0.14891014 0.15283003 0.16450201 0.16472802 0.16695974
 0.19504788 0.19537349 0.21276806 0.24095747]  max|de|= -5.07e-06  lindep= 0.831
root 7 converged  |r|= 1.11e-06  e= 0.19537348917042752  max|de|= -4.38e-11
davidson 7 66  |r|= 0.00019  e= [0.14888591 0.14891014 0.15283003 0.16450201 0.16472802 0.16695974
 0.19504788 0.19537349 0.21276805 0.24095699]  max|de|= -4.81e-07  lindep= 0.827
root 8 converged  |r|= 5.52e-06  e= 0.2127680455232645  max|de|= -8.36e-10
davidson 8 68  |r|= 5.01e-05  e= [0.14888591 0.14891014 0.15283003 0.16450201 0.16472802 0.16695974
 0.19504788 0.19537349 0.21276805 0.24095695]  max|de|= -3.78e-08  lindep= 0.821
davidson 9 10  |r|= 5.01e-05  e= [0.14888591 0.14891014 0.15283003 0.16450201 0.16472802 0.16695974
 0.19504788 0.19537349 0.21276805 0.24095695]  max|de|= -4.44e-16  lindep=    1
davidson 10 11  |r|= 1.91e-05  e= [0.14888591 0.14891014 0.15283003 0.16450201 0.16472802 0.16695974
 0.19504788 0.19537349 0.21276805 0.24095695]  max|de|= -1.87e-09  lindep= 0.724
root 9 converged  |r|= 4.61e-06  e= 0.24095695286722468  max|de|= -2.28e-10
converged 11 12  |r|= 5.52e-06  e= [0.14888591 0.14891014 0.15283003 0.16450201 0.16472802 0.16695974
 0.19504788 0.19537349 0.21276805 0.24095695]  max|de|= -2.28e-10
    CPU time for TDA    225.44 sec, wall time      8.23 sec
Excited State energies (eV)
[4.05139195 4.05205141 4.15871694 4.47632769 4.48247766 4.54320596
 5.3075231  5.31638343 5.78971342 6.55677266]
Converting <class 'pyscf.dft.rks.RKS'> to RHF


******** <class 'pyscf.tdscf.rks.TDDFT'> for <class 'pyscf.dft.rks.RKS'> ********
nstates = 10 singlet
wfnsym = None
conv_tol = 1e-09
eigh lindep = 1e-12
eigh level_shift = 0
eigh max_space = 50
eigh max_cycle = 100
chkfile = /scratch/global/yangjunjie/tmpf9bhmtmg
max_memory 127949 MB (current use 629 MB)


davidson 0 10  |r|= 0.332  e= [0.14896624 0.14921753 0.15565902 0.16454968 0.16475614 0.16919951
 0.19736468 0.19772603 0.27862049 0.31953466]  max|de|= 0.32  lindep=    1
Old state -> New state
    9     ->     6 
    6     ->     8 
    7     ->     9 
davidson 1 20  |r|= 0.368  e= [0.14885274 0.14889323 0.1492551  0.16447191 0.16472434 0.16670051
 0.16683681 0.18407717 0.18628725 0.18783123]  max|de|= -0.153  lindep= 0.273
Old state -> New state
    7     ->     0 
    6     ->     1 
    8     ->     2 
    9     ->     3 
    1     ->     4 
    0     ->     5 
    2     ->     6 
    3     ->     7 
    4     ->     8 
    5     ->     9 
davidson 2 30  |r|= 1.15  e= [0.05646251 0.12608596 0.14266337 0.14691696 0.14887712 0.14888319
 0.15172113 0.16447656 0.16472688 0.16691536]  max|de|= -0.128  lindep= 0.0925
Old state -> New state
    6     ->     0 
    0     ->     1 
    0     ->     2 
    4     ->     3 
    5     ->     4 
    7     ->     5 
    8     ->     6 
    9     ->     7 
    2     ->     8 
    3     ->     9 
davidson 3 40  |r|= 1.48  e= [0.04306981 0.05184178 0.08535489 0.14885332 0.14888484 0.16448088
 0.16472715 0.16687947 0.19392129 0.19418405]  max|de|= -0.109  lindep= 0.108
Old state -> New state
    0     ->     2 
    0     ->     5 
    5     ->     6 
    6     ->     7 
    7     ->     8 
    8     ->     9 
davidson 4 50  |r|= 1.58  e= [0.03856661 0.08534193 0.0980593  0.14884654 0.14888349 0.15186907
 0.16448964 0.16472659 0.16685842 0.19402106]  max|de|= 0.109  lindep= 0.022
Old state -> New state
    5     ->     1 
    3     ->     2 
    4     ->     3 
    5     ->     4 
    6     ->     5 
    7     ->     6 
    8     ->     7 
    9     ->     8 
    1     ->     9 
davidson 5 60  |r|= 1.56  e= [0.03342848 0.13939626 0.14886355 0.14888361 0.15185915 0.16449049
 0.16472657 0.1668522  0.19404847 0.19433006]  max|de|= 0.109  lindep= 0.0152
Old state -> New state
    8     ->     0 
    2     ->     1 
    3     ->     2 
    4     ->     3 
    5     ->     4 
    6     ->     5 
    7     ->     6 
    0     ->     7 
davidson 6 70  |r|= 0.997  e= [0.04106799 0.14886169 0.1488836  0.15188904 0.16448988 0.16472608
 0.16685104 0.18790215 0.19404685 0.19437484]  max|de|= 0.154  lindep= 0.0445
Old state -> New state
    8     ->     1 
    1     ->     2 
    2     ->     3 
    3     ->     4 
    4     ->     5 
    5     ->     6 
    6     ->     7 
davidson 7 80  |r|= 1.01  e= [0.0408727  0.12652951 0.14886239 0.14888353 0.1518755  0.16449021
 0.16472639 0.16685115 0.19404909 0.19435793]  max|de|= -0.0675  lindep= 0.00335
root 3 converged  |r|= 2.13e-05  e= 0.14888352961701426  max|de|= 1.11e-16
davidson 8 10  |r|= 1.01  e= [0.0408727  0.12652951 0.14886239 0.14888353 0.1518755  0.16449021
 0.16472639 0.16685115 0.19404909 0.19435793]  max|de|= -8.33e-16  lindep= 0.096
Old state -> New state
    2     ->     1 
    3     ->     2 
    4     ->     3 
    5     ->     4 
    6     ->     5 
    7     ->     6 
    8     ->     7 
davidson 9 19  |r|= 0.969  e= [0.04093022 0.14886209 0.14888354 0.15187548 0.16449    0.1647264
 0.1668515  0.19378044 0.1940472  0.1943296 ]  max|de|= -0.000269  lindep= 0.000533
Old state -> New state
    0     ->     1 
    1     ->     2 
    2     ->     3 
    3     ->     4 
    3     ->     5 
    3     ->     6 
    4     ->     7 
    5     ->     8 
    6     ->     9 
davidson 10 29  |r|= 1.11  e= [0.03734511 0.06663967 0.14886299 0.14888353 0.15187267 0.16051854
 0.162393   0.16449036 0.16472638 0.16685099]  max|de|= 0.0257  lindep= 0.0712
Old state -> New state
    5     ->     1 
    6     ->     2 
    2     ->     3 
    3     ->     4 
    4     ->     5 
    7     ->     6 
    8     ->     7 
davidson 11 39  |r|= 1.43  e= [0.03700786 0.03993028 0.07786761 0.14886212 0.14888353 0.15187497
 0.16448997 0.16472613 0.16498155 0.16685123]  max|de|= -0.121  lindep= 0.0963
Old state -> New state
    3     ->     1 
    4     ->     2 
    5     ->     3 
    5     ->     4 
    6     ->     5 
    9     ->     8 
    8     ->     9 
davidson 12 49  |r|= 1.16  e= [0.02446359 0.14886215 0.14888356 0.14951311 0.15187603 0.16449789
 0.16468275 0.1647263  0.16685124 0.19405684]  max|de|= 0.0291  lindep= 0.0597
Old state -> New state
    4     ->     1 
    0     ->     2 
    1     ->     3 
    2     ->     4 
    4     ->     5 
    5     ->     7 
    7     ->     8 
    8     ->     9 
davidson 13 59  |r|= 1.17  e= [0.00831984 0.05522729 0.08805043 0.1488621  0.14888353 0.15187491
 0.15885954 0.16449024 0.1647264  0.16685126]  max|de|= -0.0966  lindep= 0.112
Old state -> New state
    3     ->     1 
    4     ->     2 
    5     ->     3 
    7     ->     4 
    8     ->     5 
    9     ->     6 
    5     ->     7 
    0     ->     8 
    6     ->     9 
root 2 converged  |r|= 4.07e-06  e= 0.14888353319292916  max|de|= 2.95e-10
davidson 14 69  |r|= 1.15  e= [0.04397745 0.14886215 0.14888353 0.15187531 0.16448982 0.1647264
 0.16685116 0.16900346 0.19404871 0.19435051]  max|de|= 0.186  lindep= 0.165
Old state -> New state
    6     ->     7 
davidson 15 78  |r|= 1.07  e= [0.04301848 0.14886209 0.14888353 0.1518751  0.16449008 0.16472639
 0.16685125 0.16765469 0.19404077 0.19434475]  max|de|= -0.000959  lindep= 0.0265
root 1 converged  |r|= 8.04e-06  e= 0.14886208714745217  max|de|= 2.22e-16
root 3 converged  |r|= 1.2e-05  e= 0.15187509940828087  max|de|= -1.69e-15
root 5 converged  |r|= 4.73e-06  e= 0.16472639496729416  max|de|= 1.67e-16
root 6 converged  |r|= 8.45e-06  e= 0.16685125186266445  max|de|= 4.35e-14
davidson 16 10  |r|= 1.07  e= [0.04301848 0.14886209 0.14888353 0.1518751  0.16449008 0.16472639
 0.16685125 0.16765469 0.19404077 0.19434475]  max|de|= 2.51e-12  lindep= 0.445
Old state -> New state
    0     ->     1 
    1     ->     2 
    2     ->     3 
    3     ->     4 
    4     ->     5 
    5     ->     6 
    6     ->     7 
    0     ->     8 
    0     ->     9 
davidson 17 15  |r|= 1.53  e= [0.03877339 0.09640256 0.14886206 0.14888353 0.15187505 0.16448999
 0.1647264  0.16685125 0.17012307 0.18303491]  max|de|= 0.14  lindep= 0.0282
Old state -> New state
    2     ->     1 
    3     ->     2 
    4     ->     3 
    5     ->     4 
    6     ->     5 
    7     ->     6 
    1     ->     8 
    8     ->     9 
davidson 18 23  |r|= 1.11  e= [0.06696189 0.14886218 0.14888353 0.15187512 0.16449016 0.1647264
 0.16592844 0.16685137 0.19403853 0.19435354]  max|de|= 0.0976  lindep= 0.158
Old state -> New state
    0     ->     1 
    3     ->     2 
    1     ->     3 
    2     ->     4 
    3     ->     5 
    4     ->     6 
    5     ->     7 
    7     ->     8 
    8     ->     9 
davidson 19 32  |r|= 1.23  e= [0.06511143 0.08507689 0.14729248 0.14886206 0.14888353 0.15187528
 0.16448999 0.16472639 0.16685125 0.18961866]  max|de|= 0.0181  lindep= 0.211
Old state -> New state
    1     ->     2 
root 8 converged  |r|= 2.94e-06  e= 0.16685125482984306  max|de|= 3.01e-10
davidson 20 41  |r|=  1.3  e= [0.00247263 0.03533974 0.12131248 0.14886212 0.14888353 0.15187507
 0.16449001 0.1647264  0.16685125 0.18549602]  max|de|= -0.0626  lindep= 0.166
Old state -> New state
    3     ->     2 
    4     ->     3 
    5     ->     4 
    6     ->     5 
    7     ->     6 
    8     ->     7 
    9     ->     8 
root 6 converged  |r|= 6.15e-07  e= 0.16472639535873754  max|de|= -6.68e-10
davidson 21 49  |r|= 1.07  e= [0.00551414 0.01496021 0.14886211 0.14888353 0.1518751  0.16449001
 0.1647264  0.16685125 0.19403991 0.19435278]  max|de|= -0.0204  lindep= 0.103
Old state -> New state
    1     ->     2 
    2     ->     3 
    3     ->     4 
    4     ->     5 
    7     ->     6 
    5     ->     7 
    6     ->     8 
    7     ->     9 
davidson 22 56  |r|= 1.15  e= [0.00640394 0.03635393 0.07427455 0.14886211 0.14888353 0.15187509
 0.16188125 0.16449003 0.1647264  0.16685125]  max|de|= 0.0593  lindep= 0.0198
Old state -> New state
    3     ->     1 
    4     ->     2 
    5     ->     3 
    7     ->     4 
    8     ->     5 
    9     ->     6 
    1     ->     7 
    6     ->     8 
    1     ->     9 
root 1 converged  |r|= 9.17e-07  e= 0.14886211406170724  max|de|= 8.16e-10
davidson 23 64  |r|= 1.07  e= [0.10448589 0.14886211 0.14888353 0.1518751  0.16449    0.1647264
 0.16685125 0.19403994 0.1943537  0.20323023]  max|de|= 0.167  lindep= 0.112
Old state -> New state
    7     ->     8 
    8     ->     9 
root 4 converged  |r|= 1.28e-06  e= 0.16449000488156187  max|de|= 8.97e-10
davidson 24 70  |r|= 0.988  e= [0.01573502 0.14886211 0.14888353 0.15187509 0.16449    0.1647264
 0.16685125 0.17772607 0.19403974 0.19435305]  max|de|= -0.0888  lindep= 0.0848
Old state -> New state
    0     ->     1 
    8     ->     2 
    1     ->     3 
    2     ->     4 
    3     ->     5 
    4     ->     6 
    5     ->     7 
    6     ->     8 
    8     ->     9 
root 5 converged  |r|= 5.9e-07  e= 0.1518750881504464  max|de|= 7.67e-10
root 8 converged  |r|= 2.09e-07  e= 0.16685125200394277  max|de|= 1.61e-10
davidson 25 74  |r|= 1.26  e= [0.01705765 0.06502289 0.12595334 0.14886211 0.14888353 0.15187509
 0.16449001 0.1647264  0.16685125 0.19403982]  max|de|= -0.0681  lindep= 0.0157
Old state -> New state
    0     ->     1 
    3     ->     2 
    4     ->     3 
    5     ->     4 
    6     ->     5 
    7     ->     6 
    8     ->     7 
    9     ->     8 
    1     ->     9 
davidson 26 78  |r|= 1.39  e= [0.05892743 0.12714113 0.14886211 0.14888353 0.15187508 0.16449001
 0.1647264  0.16685125 0.19403967 0.19435316]  max|de|= 0.129  lindep= 0.105
root 4 converged  |r|= 1.26e-06  e= 0.15187508452684637  max|de|= 3.33e-13
root 8 converged  |r|= 1.54e-05  e= 0.19403966788808333  max|de|= 4.13e-14
root 9 converged  |r|= 1.19e-05  e= 0.19435315811005618  max|de|= -8.62e-13
davidson 27 10  |r|= 1.39  e= [0.05892743 0.12714113 0.14886211 0.14888353 0.15187508 0.16449001
 0.1647264  0.16685125 0.19403967 0.19435316]  max|de|= -8.62e-13  lindep= 0.289
Old state -> New state
    0     ->     1 
davidson 28 12  |r|=  1.6  e= [0.00323793 0.13303838 0.14886211 0.14888353 0.15187509 0.16449
 0.1647264  0.16685125 0.19403969 0.19435309]  max|de|= 0.0741  lindep= 0.349
Old state -> New state
    0     ->     1 
davidson 29 17  |r|= 1.35  e= [0.02822827 0.08418516 0.14886211 0.14888353 0.15187509 0.16449001
 0.1647264  0.16685125 0.19403964 0.19435324]  max|de|= 0.0809  lindep= 0.152
Old state -> New state
    2     ->     1 
    3     ->     2 
    4     ->     3 
    5     ->     4 
    6     ->     5 
    7     ->     6 
root 1 converged  |r|= 1.51e-07  e= 0.14886211356696544  max|de|= -8.83e-11
root 3 converged  |r|= 2.49e-07  e= 0.1518750913540534  max|de|= 1.48e-10
davidson 30 21  |r|= 1.06  e= [0.08364579 0.14886211 0.14888353 0.15187509 0.16449001 0.1647264
 0.16685125 0.16700654 0.19403966 0.19435327]  max|de|= 0.0554  lindep= 0.227
Old state -> New state
    9     ->     7 
root 6 converged  |r|= 1.06e-06  e= 0.1668512504787719  max|de|= -1.26e-11
davidson 31 26  |r|= 0.97  e= [0.06606129 0.14886211 0.14888353 0.15187509 0.16449    0.1647264
 0.16685125 0.17233014 0.19403955 0.19435315]  max|de|= -0.022  lindep= 0.195
Old state -> New state
    7     ->     0 
    0     ->     1 
    1     ->     2 
    1     ->     3 
    2     ->     4 
    3     ->     5 
    4     ->     6 
    5     ->     7 
    6     ->     8 
    8     ->     9 
davidson 32 31  |r|= 1.54  e= [0.03373308 0.05944482 0.14625196 0.14886211 0.14888353 0.15187509
 0.16449001 0.1647264  0.16685125 0.19403961]  max|de|= -0.139  lindep= 0.0981
Old state -> New state
    1     ->     0 
    3     ->     1 
    4     ->     2 
    5     ->     3 
    6     ->     4 
    7     ->     5 
    8     ->     6 
    8     ->     7 
    9     ->     8 
    2     ->     9 
root 3 converged  |r|= 4.69e-07  e= 0.15187509048259745  max|de|= -4.4e-10
root 4 converged  |r|= 1.3e-07  e= 0.1644900052374601  max|de|= -4.61e-10
davidson 33 37  |r|= 1.45  e= [0.0610937  0.14886211 0.14888353 0.15187509 0.16449001 0.1647264
 0.16609745 0.16685125 0.19403961 0.19435317]  max|de|= 0.0481  lindep= 0.269
Old state -> New state
    7     ->     6 
    8     ->     7 
    9     ->     8 
    0     ->     9 
root 1 converged  |r|= 8.73e-08  e= 0.14886211360046578  max|de|= 2e-10
davidson 34 41  |r|= 1.19  e= [0.04128857 0.14886211 0.14888353 0.15187509 0.16449001 0.1647264
 0.16685125 0.1940396  0.1943532  0.23698435]  max|de|= 0.176  lindep= 0.138
Old state -> New state
    3     ->     4 
    4     ->     5 
    5     ->     6 
    6     ->     7 
    7     ->     8 
    8     ->     9 
root 7 converged  |r|= 1.37e-07  e= 0.1668512519767411  max|de|= 1.18e-10
davidson 35 45  |r|= 1.14  e= [0.04501264 0.14886211 0.14888353 0.15187509 0.16006057 0.16449
 0.1647264  0.16685125 0.19403821 0.19435863]  max|de|= 0.00819  lindep= 0.189
Old state -> New state
    3     ->     1 
    1     ->     2 
    2     ->     3 
    3     ->     4 
davidson 36 49  |r|= 1.12  e= [0.04665583 0.13080485 0.14886211 0.14888353 0.15187509 0.16449001
 0.1647264  0.16685125 0.19403961 0.19435323]  max|de|= -0.0211  lindep= 0.0517
davidson 37 53  |r|= 1.14  e= [0.04355508 0.07411404 0.14886211 0.14888353 0.15187509 0.16449001
 0.1647264  0.16685125 0.19403959 0.19435321]  max|de|= -0.0567  lindep= 0.028
Old state -> New state
    0     ->     1 
    4     ->     2 
    2     ->     3 
    3     ->     4 
    4     ->     5 
    5     ->     6 
    6     ->     7 
    7     ->     8 
    8     ->     9 
davidson 38 57  |r|= 1.12  e= [0.03639672 0.0583851  0.1423994  0.14886211 0.14888353 0.1518751
 0.16449001 0.1647264  0.16685125 0.1940396 ]  max|de|= 0.0148  lindep= 0.0645
Old state -> New state
    0     ->     1 
    3     ->     2 
    4     ->     3 
    5     ->     4 
    6     ->     5 
    7     ->     6 
    8     ->     7 
    9     ->     8 
    0     ->     9 
davidson 39 60  |r|= 1.23  e= [0.02619955 0.09819632 0.14886211 0.14888353 0.15187509 0.16449001
 0.1647264  0.16685125 0.1940396  0.19435322]  max|de|= 0.158  lindep= 0.0633
Old state -> New state
    2     ->     1 
    3     ->     2 
    4     ->     3 
    5     ->     4 
    6     ->     5 
    7     ->     6 
    8     ->     7 
root 3 converged  |r|= 2.66e-08  e= 0.1518750916634999  max|de|= 4.28e-11
davidson 40 62  |r|= 0.953  e= [0.02677783 0.14886211 0.14888353 0.15187509 0.16449001 0.1647264
 0.16685125 0.19087628 0.19403972 0.1943532 ]  max|de|= -0.00316  lindep= 0.00319
Old state -> New state
    1     ->     0 
    2     ->     1 
    3     ->     2 
    4     ->     3 
    5     ->     4 
    6     ->     5 
    0     ->     6 
    8     ->     7 
    9     ->     8 
    7     ->     9 
davidson 41 66  |r|= 0.62  e= [0.14886211 0.14888353 0.15187509 0.16449001 0.1647264  0.16685125
 0.1818467  0.19403961 0.19435322 0.23709682]  max|de|= 0.155  lindep= 0.21
Old state -> New state
    6     ->     0 
    0     ->     1 
    1     ->     2 
    2     ->     3 
    3     ->     4 
    4     ->     5 
    5     ->     6 
    6     ->     9 
davidson 42 69  |r|= 1.17  e= [0.05739235 0.14886211 0.14888353 0.15187509 0.16449001 0.1647264
 0.16685125 0.1940396  0.19435322 0.2092689 ]  max|de|= -0.124  lindep= 0.114
root 8 converged  |r|= 3.81e-07  e= 0.1943532169044578  max|de|= -7.46e-10
davidson 43 71  |r|= 1.14  e= [0.01807306 0.14886211 0.14888353 0.15187509 0.16449001 0.1647264
 0.16685125 0.1940396  0.19435322 0.20993724]  max|de|= -0.0393  lindep= 0.0651
Old state -> New state
    1     ->     0 
    2     ->     1 
    3     ->     2 
    4     ->     3 
    5     ->     4 
    6     ->     5 
    7     ->     6 
davidson 44 73  |r|= 0.534  e= [0.14886211 0.14888353 0.15187509 0.16449001 0.1647264  0.16685125
 0.18901495 0.19403962 0.19435324 0.21212869]  max|de|= -0.00502  lindep= 0.161
Old state -> New state
    6     ->     0 
    0     ->     1 
    1     ->     2 
    2     ->     3 
    3     ->     4 
    4     ->     5 
    5     ->     6 
davidson 45 77  |r|= 1.49  e= [0.08848161 0.14886211 0.14888353 0.15187509 0.16449001 0.1647264
 0.16685125 0.1940396  0.19435322 0.2107917 ]  max|de|= -0.101  lindep= 0.112
root 7 converged  |r|= 2.34e-07  e= 0.1940396014498303  max|de|= -2.91e-12
root 8 converged  |r|= 2.36e-07  e= 0.1943532152034264  max|de|= -1.59e-12
davidson 46 10  |r|= 1.49  e= [0.08848162 0.14886211 0.14888353 0.15187509 0.16449001 0.1647264
 0.16685125 0.1940396  0.19435322 0.2107917 ]  max|de|= 3.46e-10  lindep= 0.247
davidson 47 12  |r|=  1.2  e= [0.04009119 0.14886211 0.14888353 0.15187509 0.16449001 0.1647264
 0.16685125 0.1940396  0.19435321 0.2074428 ]  max|de|= -0.0484  lindep= 0.381
Old state -> New state
    1     ->     2 
    2     ->     3 
    3     ->     4 
    4     ->     5 
    5     ->     6 
    6     ->     7 
    7     ->     8 
    8     ->     9 
davidson 48 14  |r|= 1.13  e= [0.03963273 0.1399456  0.14886211 0.14888353 0.15187509 0.16449001
 0.1647264  0.16685125 0.1940396  0.19435321]  max|de|= -0.00892  lindep= 0.0769
Old state -> New state
    0     ->     1 
root 8 converged  |r|= 9.35e-08  e= 0.19403960085456357  max|de|= -1.94e-10
root 9 converged  |r|= 8.68e-08  e= 0.19435321482459844  max|de|= 6.39e-11
davidson 49 16  |r|= 1.41  e= [0.02485012 0.10511093 0.14886211 0.14888353 0.15187509 0.16449001
 0.1647264  0.16685125 0.1940396  0.19435321]  max|de|= 0.0655  lindep= 0.194
davidson 50 18  |r|= 1.43  e= [0.0080513  0.10267506 0.14886211 0.14888353 0.15187509 0.16449001
 0.1647264  0.16685125 0.1940396  0.19435321]  max|de|= -0.0168  lindep= 0.176
Old state -> New state
    2     ->     1 
    3     ->     2 
    4     ->     3 
    5     ->     4 
    6     ->     5 
    7     ->     6 
    8     ->     7 
    9     ->     8 
    1     ->     9 
davidson 51 20  |r|= 1.38  e= [0.0079586  0.14886211 0.14888353 0.15187509 0.16449001 0.1647264
 0.16685125 0.1940396  0.19435321 0.2102578 ]  max|de|= 0.108  lindep= 0.181
Old state -> New state
    9     ->     1 
    1     ->     2 
    2     ->     3 
    3     ->     4 
    4     ->     5 
    5     ->     6 
    6     ->     7 
    7     ->     8 
    8     ->     9 
davidson 52 22  |r|= 1.14  e= [0.01673836 0.1064972  0.14886211 0.14888353 0.15187509 0.16449001
 0.1647264  0.16685125 0.1940396  0.19435321]  max|de|= -0.104  lindep= 0.174
Old state -> New state
    0     ->     1 
davidson 53 24  |r|= 1.38  e= [0.0092328  0.04500775 0.14886211 0.14888353 0.15187509 0.16449001
 0.1647264  0.16685125 0.1940396  0.19435321]  max|de|= 0.0283  lindep= 0.207
davidson 54 26  |r|= 1.24  e= [0.01083456 0.08172262 0.14886211 0.14888353 0.15187509 0.16449001
 0.1647264  0.16685125 0.1940396  0.19435321]  max|de|= 0.0367  lindep= 0.154
Old state -> New state
    2     ->     1 
    3     ->     2 
    4     ->     3 
    5     ->     4 
    6     ->     5 
    7     ->     6 
    8     ->     7 
    9     ->     8 
    0     ->     9 
davidson 55 28  |r|= 1.15  e= [0.10643541 0.14886211 0.14888353 0.15187509 0.16449001 0.1647264
 0.16685125 0.1940396  0.19435321 0.21040365]  max|de|=  0.2  lindep= 0.204
davidson 56 30  |r|= 0.969  e= [0.04311697 0.14886211 0.14888353 0.15187509 0.16449001 0.1647264
 0.16685125 0.1940396  0.19435321 0.20877783]  max|de|= -0.0633  lindep= 0.0891
Old state -> New state
    0     ->     1 
    1     ->     2 
    2     ->     3 
    3     ->     4 
    4     ->     5 
    5     ->     6 
    6     ->     7 
    7     ->     8 
    8     ->     9 
davidson 57 32  |r|= 1.25  e= [0.00473671 0.08181861 0.14886211 0.14888353 0.15187509 0.16449001
 0.1647264  0.16685125 0.1940396  0.19435321]  max|de|= 0.0387  lindep= 0.164
Old state -> New state
    2     ->     1 
    3     ->     2 
    4     ->     3 
    5     ->     4 
    6     ->     5 
    7     ->     6 
    8     ->     7 
    9     ->     8 
    1     ->     9 
davidson 58 34  |r|= 1.16  e= [0.0508308  0.14886211 0.14888353 0.15187509 0.16449001 0.1647264
 0.16685125 0.1940396  0.19435321 0.21003761]  max|de|= 0.128  lindep= 0.277
Old state -> New state
    3     ->     4 
    4     ->     5 
    5     ->     6 
    6     ->     7 
    7     ->     8 
    8     ->     9 
davidson 59 36  |r|=  1.1  e= [0.05552762 0.14886211 0.14888353 0.15097659 0.15187509 0.16449001
 0.1647264  0.16685125 0.1940396  0.19435321]  max|de|= 0.0047  lindep= 0.0147
Old state -> New state
    1     ->     0 
    2     ->     1 
    4     ->     2 
    5     ->     3 
    6     ->     4 
    7     ->     5 
    8     ->     6 
    9     ->     7 
    3     ->     8 
davidson 60 38  |r|= 1.13  e= [0.14886211 0.14888353 0.15187509 0.16449001 0.1647264  0.16685125
 0.1940396  0.19435321 0.20995504 0.24080071]  max|de|= 0.059  lindep= 0.183
Old state -> New state
    9     ->     0 
    0     ->     1 
    1     ->     2 
    2     ->     3 
    3     ->     4 
    4     ->     5 
    5     ->     6 
    6     ->     7 
    7     ->     8 
    8     ->     9 
root 3 converged  |r|= 1.6e-08  e= 0.15187509172420033  max|de|= -1.94e-11
davidson 61 40  |r|= 1.35  e= [0.05074112 0.14886211 0.14888353 0.15187509 0.16449001 0.1647264
 0.16685125 0.1940396  0.19435321 0.21003938]  max|de|= -0.19  lindep= 0.218
davidson 62 42  |r|=  1.2  e= [0.05391669 0.14886211 0.14888353 0.15187509 0.16449001 0.1647264
 0.16685125 0.1940396  0.19435321 0.2100642 ]  max|de|= 0.00318  lindep= 0.0229
davidson 63 44  |r|= 1.21  e= [0.02059859 0.14886211 0.14888353 0.15187509 0.16449001 0.1647264
 0.16685125 0.1940396  0.19435321 0.20998329]  max|de|= -0.0333  lindep= 0.066
davidson 64 46  |r|= 1.25  e= [0.01067883 0.14886211 0.14888353 0.15187509 0.16449001 0.1647264
 0.16685125 0.1940396  0.19435321 0.2100499 ]  max|de|= -0.00992  lindep= 0.0345
Old state -> New state
    7     ->     8 
    8     ->     9 
davidson 65 48  |r|= 1.31  e= [0.00266784 0.14886211 0.14888353 0.15187509 0.16449001 0.1647264
 0.16685125 0.18303879 0.1940396  0.19435321]  max|de|= -0.011  lindep= 0.0348
Old state -> New state
    1     ->     0 
    2     ->     1 
    3     ->     2 
    4     ->     3 
    5     ->     4 
    6     ->     5 
    8     ->     6 
    9     ->     7 
    7     ->     9 
davidson 66 50  |r|= 0.57  e= [0.14886211 0.14888353 0.15187509 0.16449001 0.1647264  0.16685125
 0.19403959 0.19435322 0.20249543 0.21005464]  max|de|= 0.027  lindep= 0.213
Old state -> New state
    9     ->     8 
root 7 converged  |r|= 3.22e-07  e= 0.19435321676349265  max|de|= 5.75e-10
davidson 67 54  |r|= 0.904  e= [0.14886211 0.14888353 0.15187509 0.16449001 0.1647264  0.16685125
 0.19403961 0.19435322 0.21004398 0.24851968]  max|de|= 0.0385  lindep= 0.419
Old state -> New state
    8     ->     9 
davidson 68 56  |r|= 0.643  e= [0.14886211 0.14888353 0.15187509 0.16449001 0.1647264  0.16685125
 0.1940396  0.19435322 0.21004681 0.22998062]  max|de|= 0.0199  lindep= 0.41
davidson 69 58  |r|= 1.03  e= [0.14886211 0.14888353 0.15187509 0.16449001 0.1647264  0.16685125
 0.1940396  0.19435322 0.21004522 0.22419808]  max|de|= -0.00578  lindep= 0.256
Old state -> New state
    9     ->     0 
    0     ->     1 
    1     ->     2 
    2     ->     3 
    3     ->     4 
    4     ->     5 
    5     ->     6 
    6     ->     7 
    7     ->     8 
    8     ->     9 
davidson 70 60  |r|= 1.45  e= [0.02067285 0.14886211 0.14888353 0.15187509 0.16449001 0.1647264
 0.16685125 0.19403961 0.19435322 0.21004501]  max|de|= -0.204  lindep= 0.0838
Old state -> New state
    0     ->     1 
    1     ->     2 
    2     ->     3 
    3     ->     4 
    4     ->     5 
    5     ->     6 
    6     ->     7 
    7     ->     8 
    8     ->     9 
davidson 71 62  |r|= 1.55  e= [0.01739492 0.05106185 0.14886211 0.14888353 0.15187509 0.16449001
 0.1647264  0.16685125 0.1940396  0.19435322]  max|de|= 0.0304  lindep= 0.0456
Old state -> New state
    0     ->     1 
davidson 72 64  |r|= 1.45  e= [0.00929353 0.12225794 0.14886211 0.14888353 0.15187511 0.16449001
 0.1647264  0.16685125 0.19403962 0.19435322]  max|de|= 0.105  lindep= 0.0397
Old state -> New state
    2     ->     0 
    3     ->     1 
    4     ->     2 
    4     ->     3 
    5     ->     4 
    6     ->     5 
    7     ->     6 
    8     ->     7 
    9     ->     8 
    1     ->     9 
davidson 73 68  |r|= 0.839  e= [0.14886211 0.14888353 0.15187536 0.15987397 0.16449001 0.16472641
 0.16685126 0.19403949 0.1943532  0.21004558]  max|de|= 0.0878  lindep= 0.133
Old state -> New state
    4     ->     3 
    5     ->     4 
    6     ->     5 
    7     ->     6 
    8     ->     7 
    9     ->     8 
davidson 74 75  |r|= 0.685  e= [0.14886211 0.14888353 0.15187488 0.16449    0.1647264  0.16685125
 0.19403961 0.19435334 0.21006423 0.21367406]  max|de|= 0.00363  lindep= 0.164
Old state -> New state
    9     ->     0 
    2     ->     1 
    0     ->     2 
    1     ->     3 
    2     ->     4 
    3     ->     5 
    4     ->     6 
    5     ->     7 
    7     ->     8 
    6     ->     9 
davidson 75 83  |r|= 1.26  e= [0.02006481 0.12175888 0.14886211 0.14888353 0.15187594 0.16449001
 0.16472638 0.16685127 0.19350033 0.19404652]  max|de|= -0.194  lindep= 0.118
davidson 76 10  |r|= 1.26  e= [0.02006482 0.12176198 0.14886211 0.14888353 0.15187544 0.16449002
 0.16472636 0.16685124 0.1935003  0.19404657]  max|de|= 3.1e-06  lindep= 0.232
Old state -> New state
    0     ->     1 
    4     ->     2 
    2     ->     3 
    3     ->     4 
    4     ->     5 
    5     ->     6 
    6     ->     7 
    7     ->     8 
    8     ->     9 
root 4 converged  |r|= 4.73e-06  e= 0.1488835335573729  max|de|= 8.9e-10
davidson 77 20  |r|= 1.53  e= [0.0111731  0.06179568 0.12341149 0.14886212 0.14888353 0.15187482
 0.16448999 0.16472638 0.16685121 0.19192152]  max|de|= 0.0417  lindep= 0.198
Old state -> New state
    5     ->     2 
davidson 78 29  |r|= 1.46  e= [0.01124164 0.06557309 0.13737549 0.14886214 0.14888353 0.15187446
 0.16449001 0.16472641 0.16685125 0.19278417]  max|de|= -0.0145  lindep= 0.0305
Old state -> New state
    0     ->     1 
    1     ->     2 
davidson 79 38  |r|= 1.45  e= [0.00674136 0.01024738 0.05656417 0.14886211 0.14888353 0.15187491
 0.16448999 0.1647264  0.16685125 0.18017997]  max|de|= -0.0126  lindep= 0.0436
Old state -> New state
    9     ->     1 
    1     ->     2 
    2     ->     9 
davidson 80 47  |r|= 1.37  e= [0.00886114 0.04970937 0.06331314 0.14886211 0.14888353 0.15187483
 0.16448998 0.16472642 0.16685126 0.171846  ]  max|de|= -0.13  lindep= 0.0752
Old state -> New state
    2     ->     1 
    3     ->     2 
    4     ->     3 
    5     ->     4 
    6     ->     5 
    7     ->     6 
    8     ->     7 
root 2 converged  |r|= 1.09e-06  e= 0.1488621128029531  max|de|= -6.37e-10
davidson 81 56  |r|= 1.01  e= [0.00164501 0.01031184 0.14886211 0.14888353 0.1518753  0.16448998
 0.16472631 0.16499266 0.16685133 0.19405222]  max|de|= -0.053  lindep= 0.11
Old state -> New state
    4     ->     1 
    8     ->     7 
    9     ->     8 
davidson 82 64  |r|= 1.08  e= [0.12505899 0.13987199 0.14886211 0.14888353 0.1518753  0.16449
 0.16472639 0.16685125 0.19404317 0.19437825]  max|de|= 0.123  lindep= 0.159
Old state -> New state
    1     ->     0 
    0     ->     2 
    2     ->     3 
    3     ->     4 
    4     ->     5 
    5     ->     6 
    6     ->     7 
    7     ->     8 
davidson 83 72  |r|= 1.23  e= [0.00665539 0.08665181 0.10528117 0.14886211 0.14888353 0.15187514
 0.16449    0.16472639 0.16685125 0.19250769]  max|de|= -0.133  lindep= 0.152
Old state -> New state
    0     ->     1 
    0     ->     2 
    1     ->     9 
root 3 converged  |r|= 2.86e-07  e= 0.148862113410044  max|de|= -3.65e-10
root 8 converged  |r|= 9.16e-07  e= 0.16685125229464526  max|de|= 2.95e-10
davidson 84 80  |r|= 1.39  e= [0.04709262 0.10190985 0.12701015 0.14886211 0.14888353 0.15187511
 0.16449001 0.1647264  0.16685125 0.19404232]  max|de|= 0.12  lindep= 0.103
root 5 converged  |r|= 4.78e-06  e= 0.15187511040297585  max|de|= -5.01e-12
root 6 converged  |r|= 1.22e-06  e= 0.16449000623713833  max|de|= -6.69e-14
root 7 converged  |r|= 5.39e-06  e= 0.16472639593481356  max|de|= -1.05e-15
davidson 85 10  |r|= 1.39  e= [0.04709262 0.10190985 0.12701015 0.14886211 0.14888353 0.15187511
 0.16449001 0.1647264  0.16685125 0.19404232]  max|de|= -3.11e-11  lindep= 0.32
Old state -> New state
    0     ->     1 
    3     ->     2 
    4     ->     3 
    5     ->     4 
    2     ->     9 
davidson 86 14  |r|= 1.56  e= [0.01104987 0.12115204 0.14886211 0.14888353 0.15187508 0.15413661
 0.16449001 0.16472639 0.16685125 0.19128961]  max|de|= 0.0741  lindep= 0.273
Old state -> New state
    4     ->     1 
    5     ->     9 
davidson 87 21  |r|= 1.21  e= [0.03687929 0.12742398 0.14886211 0.14888353 0.15187509 0.15787314
 0.16449001 0.1647264  0.16685125 0.19404067]  max|de|= 0.0399  lindep= 0.173
Old state -> New state
    2     ->     1 
    3     ->     2 
    4     ->     3 
    6     ->     4 
    6     ->     5 
    7     ->     6 
    8     ->     7 
    9     ->     8 
    5     ->     9 
davidson 88 28  |r|= 1.05  e= [0.01993398 0.14886211 0.14888353 0.15187509 0.16392701 0.16448998
 0.16472638 0.16685125 0.19404161 0.28019398]  max|de|= 0.122  lindep= 0.217
Old state -> New state
    0     ->     1 
    0     ->     2 
    1     ->     3 
    2     ->     4 
    3     ->     5 
    5     ->     6 
    6     ->     7 
    7     ->     8 
root 5 converged  |r|= 5.75e-07  e= 0.15187509115473438  max|de|= 1.72e-11
davidson 89 36  |r|= 1.21  e= [0.01435647 0.07540626 0.11896234 0.14886211 0.14888353 0.15187509
 0.16449    0.16472639 0.16685125 0.1739306 ]  max|de|= -0.106  lindep= 0.0592
Old state -> New state
    0     ->     1 
    3     ->     2 
    4     ->     3 
    5     ->     4 
    6     ->     5 
    7     ->     6 
    8     ->     7 
    9     ->     8 
    1     ->     9 
root 5 converged  |r|= 2.16e-07  e= 0.16449000501244973  max|de|= 1.61e-10
root 6 converged  |r|= 9.63e-07  e= 0.16472639560716928  max|de|= 6.81e-10
root 7 converged  |r|= 1.81e-07  e= 0.16685125185378932  max|de|= 5.91e-10
davidson 90 41  |r|= 1.12  e= [0.00670573 0.06118763 0.14886211 0.14888353 0.15187509 0.16449001
 0.1647264  0.16685125 0.19404047 0.21922631]  max|de|= 0.144  lindep= 0.0832
Old state -> New state
    0     ->     1 
davidson 91 45  |r|= 1.23  e= [0.01125316 0.07180494 0.14886211 0.14888353 0.15187509 0.16449001
 0.1647264  0.16685125 0.19404095 0.21844588]  max|de|= 0.0651  lindep= 0.12
Old state -> New state
    4     ->     1 
    4     ->     2 
    2     ->     3 
    3     ->     4 
    4     ->     5 
    5     ->     6 
    6     ->     7 
    7     ->     8 
    8     ->     9 
davidson 92 49  |r|= 1.26  e= [0.01418728 0.02704132 0.13388522 0.14886211 0.14888353 0.15187509
 0.16449001 0.1647264  0.16685125 0.19404049]  max|de|= -0.125  lindep= 0.0234
Old state -> New state
    1     ->     0 
    3     ->     2 
    4     ->     3 
    5     ->     4 
    6     ->     5 
    7     ->     6 
    8     ->     7 
    9     ->     8 
    0     ->     9 
davidson 93 53  |r|= 1.21  e= [0.01417335 0.10539089 0.14886211 0.14888353 0.15187509 0.16449001
 0.1647264  0.16685125 0.19403843 0.2105725 ]  max|de|= 0.196  lindep= 0.103
Old state -> New state
    4     ->     0 
    2     ->     1 
    3     ->     2 
    4     ->     3 
davidson 94 57  |r|= 1.21  e= [0.00420765 0.14886211 0.14888353 0.15109374 0.15187478 0.16449
 0.1647264  0.16685125 0.19404024 0.21155344]  max|de|= -0.148  lindep= 0.0815
Old state -> New state
    4     ->     1 
    1     ->     2 
    2     ->     3 
    8     ->     9 
davidson 95 63  |r|= 1.18  e= [0.0403371  0.0779982  0.14886211 0.14888353 0.15187509 0.16449001
 0.1647264  0.16685125 0.194041   0.19967583]  max|de|= -0.0739  lindep= 0.121
Old state -> New state
    1     ->     0 
    2     ->     1 
    3     ->     2 
    4     ->     3 
root 6 converged  |r|= 8.16e-07  e= 0.16472639566584324  max|de|= -4.82e-12
davidson 96 67  |r|= 1.08  e= [0.05329928 0.14886211 0.14888353 0.15185372 0.15187458 0.16449001
 0.1647264  0.16685125 0.19403997 0.21005985]  max|de|= -0.0247  lindep= 0.0564
Old state -> New state
    1     ->     0 
    2     ->     1 
    4     ->     2 
    5     ->     3 
    6     ->     4 
    7     ->     5 
    8     ->     6 
    8     ->     7 
    9     ->     8 
    0     ->     9 
davidson 97 72  |r|= 0.583  e= [0.14886211 0.14888353 0.15187509 0.16449001 0.1647264  0.16685125
 0.18137742 0.19404038 0.21002142 0.24024184]  max|de|= 0.187  lindep= 0.247
Old state -> New state
    6     ->     0 
    2     ->     1 
    0     ->     2 
    1     ->     3 
    2     ->     4 
    3     ->     5 
    4     ->     6 
    5     ->     7 
    7     ->     8 
    6     ->     9 
root 4 converged  |r|= 2.21e-07  e= 0.15187509239248023  max|de|= 4.58e-10
davidson 98 76  |r|= 1.21  e= [0.03678076 0.14608263 0.14886211 0.14888353 0.15187509 0.16449001
 0.1647264  0.16685125 0.19403978 0.19764729]  max|de|= -0.145  lindep= 0.121
Old state -> New state
    1     ->     0 
    2     ->     1 
    3     ->     2 
    4     ->     3 
    5     ->     4 
    6     ->     5 
    7     ->     6 
    8     ->     7 
    9     ->     8 
    1     ->     9 
davidson 99 80  |r|= 1.08  e= [0.03045133 0.14886211 0.14888353 0.15187509 0.16449001 0.1647264
 0.16685125 0.19403963 0.19619118 0.21012068]  max|de|= -0.116  lindep= 0.107
/home/yangjunjie/packages/pyscf/pyscf-main/pyscf/tdscf/rhf.py:1005: RuntimeWarning: invalid value encountered in sqrt
  norm = numpy.sqrt(.5/norm)  # normalize to 0.5 for alpha spin
    CPU time for TDDFT   1619.45 sec, wall time     58.91 sec
TD-SCF states [0, 7, 8, 9] not converged.
Excited State energies (eV)
[0.82862283 4.05074444 4.05132729 4.13273175 4.47600103 4.48243354
 4.54025382 5.28008724 5.33863395 5.71767493]
