 
:: initializing oneAPI environment ...
   slurm_script: BASH_VERSION = 4.2.46(1)-release
   args: Using "$@" for setvars.sh arguments: --force
:: advisor -- latest
:: ccl -- latest
:: clck -- latest
:: compiler -- latest
:: dal -- latest
:: debugger -- latest
:: dev-utilities -- latest
:: dnnl -- latest
:: dpcpp-ct -- latest
:: dpl -- latest
:: inspector -- latest
:: intelpython -- latest
:: ipp -- latest
:: ippcp -- latest
:: ipp -- latest
:: itac -- latest
:: mkl -- latest
:: mpi -- latest
:: tbb -- latest
:: vpl -- latest
:: vtune -- latest
:: oneAPI environment initialized ::
 
SLURM_CPUS_PER_TASK = 28
SLURM_MEM_PER_NODE = 256000
#INFO: **** input file is /home/yangjunjie/work/py-ch3-cl/work/step_-20/main.py ****
import sys
import pyscf
from pyscf import tdscf

def main(xyz_file, basis="631g*", xc="b3lyp", output="ene.out"):
    xyz = None

    with open(xyz_file, "r") as xyz:
        xyz = xyz.readlines()[2:]
        xyz = "".join(xyz)

    mol = pyscf.gto.Mole()
    mol.atom = xyz
    mol.basis = basis
    mol.verbose = 5
    mol.build()

    if xc is not None and xc != "hf":
        mf = pyscf.scf.RKS(mol)
        mf.xc = xc
        mf.kernel()
    else:
        mf = pyscf.scf.RHF(mol)
        mf.kernel()

    ene_mf = mf.e_tot

    tda = pyscf.tdscf.TDA(mf)
    tda.nstates = 10
    tda.kernel()
    ene_tda = tda.e[:5]
    dip_tda = tda.transition_dipole()[:5]

    rpa = pyscf.tdscf.RPA(mf)
    rpa.nstates = 10
    rpa.kernel()
    ene_rpa = rpa.e[:5]
    dip_rpa = rpa.transition_dipole()[:5]

    with open(output, "w") as f:
        f.write(f"RKS energy: {ene_mf: 12.8f}\n")
        f.write("TDA results:\n")
        for i, (ene, dip) in enumerate(zip(ene_tda, dip_tda)):
            f.write(f" {i:2d} {ene: 12.8f} {dip[0]: 12.8f} {dip[1]: 12.8f} {dip[2]: 12.8f}\n")
        
        f.write("\nRPA results:\n")
        for i, (ene, dip) in enumerate(zip(ene_rpa, dip_rpa)):
            f.write(f" {i:2d} {ene: 12.8f} {dip[0]: 12.8f} {dip[1]: 12.8f} {dip[2]: 12.8f}\n")

if __name__ == "__main__":
    xyz = sys.argv[1]
    main(xyz, basis="631g*", xc="b3lyp", output="out.log")
#INFO: ******************** input file end ********************


System: uname_result(system='Linux', node='pauling003', release='3.10.0-327.36.3.el7.x86_64', version='#1 SMP Thu Oct 20 04:56:07 EDT 2016', machine='x86_64')  Threads 28
Python 3.9.7 (default, Oct 27 2021, 01:23:21) 
[GCC 9.3.0]
numpy 1.21.2  scipy 1.6.2
Date: Tue Sep 27 23:11:16 2022
PySCF version 2.0.1
PySCF path  /home/yangjunjie/packages/pyscf/pyscf-main
GIT ORIG_HEAD 14b880cdc4bf7bb64f3989a147c0b04622efc498
GIT HEAD (branch master) 9d5b5bd309d1cc55fbd1a0ec76e26b5b0c7f76af

[ENV] PYSCF_MAX_MEMORY 256000
[ENV] PYSCF_TMPDIR /scratch/global/yangjunjie/
[CONFIG] conf_file /home/yangjunjie/.pyscf_conf.py
[INPUT] verbose = 5
[INPUT] max_memory = 256000 
[INPUT] num. atoms = 16
[INPUT] num. electrons = 68
[INPUT] charge = 0
[INPUT] spin (= nelec alpha-beta = 2S) = 0
[INPUT] symmetry False subgroup None
[INPUT] Mole.unit = angstrom
[INPUT]  1 C      0.000000010000   1.146001620000   1.161856220000 AA    0.000000018897   2.165629200108   2.195590051922 Bohr
[INPUT]  2 C      0.000000000000   1.200399810000   2.556207190000 AA    0.000000000000   2.268426880880   4.830531506744 Bohr
[INPUT]  3 C     -0.000000010000  -0.013494260000   3.250328190000 AA   -0.000000018897  -0.025500455654   6.142230094053 Bohr
[INPUT]  4 C     -0.000000010000  -1.214139180000   2.532046530000 AA   -0.000000018897  -2.294390527304   4.784874476355 Bohr
[INPUT]  5 C      0.000000000000  -1.130753770000   1.137337490000 AA    0.000000000000  -2.136814939619   2.149256367300 Bohr
[INPUT]  6 N      0.000000010000   0.015590850000   0.475880330000 AA    0.000000018897   0.029462436549   0.899283491768 Bohr
[INPUT]  7 C      0.000000000000   0.004390010000  -2.218173760000 AA    0.000000000000   0.008295916584  -4.191740903097 Bohr
[INPUT]  8 H      0.000000020000   2.071153020000   0.575918550000 AA    0.000000037795   3.913911969866   1.088328329557 Bohr
[INPUT]  9 H      0.000000000000   2.142768330000   3.069394960000 AA    0.000000000000   4.049245292092   5.800315842520 Bohr
[INPUT] 10 H     -0.000000020000  -0.024946920000   4.328136780000 AA   -0.000000037795  -0.047142846451   8.178993143857 Bohr
[INPUT] 11 H     -0.000000020000  -2.165696730000   3.024617480000 AA   -0.000000037795  -4.092573688566   5.715698668772 Bohr
[INPUT] 12 H      0.000000000000  -2.042028360000   0.532606910000 AA    0.000000000000  -3.858874338995   1.006481191951 Bohr
[INPUT] 13 H     -0.000000030000   1.035265270000  -1.883725170000 AA   -0.000000056692   1.956367826574  -3.559724665250 Bohr
[INPUT] 14 H     -0.890980890000  -0.502786180000  -1.866141840000 AA   -1.683709864321  -0.950128179416  -3.526496987192 Bohr
[INPUT] 15 H      0.890980910000  -0.502786140000  -1.866141850000 AA    1.683709902116  -0.950128103827  -3.526497006089 Bohr
[INPUT] 16 Cl    -0.000000010000  -0.010674780000  -4.036402500000 AA   -0.000000018897  -0.020172410640  -7.627695253510 Bohr
[INPUT] ---------------- BASIS SET ---------------- 
[INPUT] l, kappa, [nprim/nctr], expnt,             c_1 c_2 ...
[INPUT] C
[INPUT] 0    0    [6    /1   ]  3047.5249         0.0018347
                                457.36951         0.0140373
                                103.94869         0.0688426
                                29.210155         0.2321844
                                9.286663          0.4679413
                                3.163927          0.362312
[INPUT] 0    0    [3    /1   ]  7.8682724         -0.1193324
                                1.8812885         -0.1608542
                                0.5442493         1.1434564
[INPUT] 0    0    [1    /1   ]  0.1687144            1
[INPUT] 1    0    [3    /1   ]  7.8682724         0.0689991
                                1.8812885         0.316424
                                0.5442493         0.7443083
[INPUT] 1    0    [1    /1   ]  0.1687144            1
[INPUT] 2    0    [1    /1   ]  0.8                  1
[INPUT] H
[INPUT] 0    0    [3    /1   ]  18.731137         0.0334946
                                2.8253937         0.23472695
                                0.6401217         0.81375733
[INPUT] 0    0    [1    /1   ]  0.1612778            1
[INPUT] N
[INPUT] 0    0    [6    /1   ]  4173.511          0.0018348
                                627.4579          0.013995
                                142.9021          0.068587
                                40.23433          0.232241
                                12.82021          0.46907
                                4.390437          0.360455
[INPUT] 0    0    [3    /1   ]  11.626358         -0.114961
                                2.71628           -0.169118
                                0.772218          1.145852
[INPUT] 0    0    [1    /1   ]  0.2120313            1
[INPUT] 1    0    [3    /1   ]  11.626358         0.06758
                                2.71628           0.323907
                                0.772218          0.740895
[INPUT] 1    0    [1    /1   ]  0.2120313            1
[INPUT] 2    0    [1    /1   ]  0.8                  1
[INPUT] Cl
[INPUT] 0    0    [6    /1   ]  25180.1           0.001833
                                3780.35           0.014034
                                860.474           0.069097
                                242.145           0.237452
                                77.3349           0.483034
                                26.247            0.339856
[INPUT] 0    0    [6    /1   ]  491.765           -0.0022974
                                116.984           -0.030714
                                37.4153           -0.112528
                                13.7834           0.045016
                                5.45215           0.589353
                                2.22588           0.465206
[INPUT] 0    0    [3    /1   ]  3.18649           -0.25183
                                1.14427           0.061589
                                0.420377          1.06018
[INPUT] 0    0    [1    /1   ]  0.142657             1
[INPUT] 1    0    [6    /1   ]  491.765           0.0039894
                                116.984           0.030318
                                37.4153           0.12988
                                13.7834           0.327951
                                5.45215           0.453527
                                2.22588           0.252154
[INPUT] 1    0    [3    /1   ]  3.18649           -0.014299
                                1.14427           0.323572
                                0.420377          0.743507
[INPUT] 1    0    [1    /1   ]  0.142657             1
[INPUT] 2    0    [1    /1   ]  0.75                 1

nuclear repulsion = 373.435866113104
number of shells = 66
number of NR pGTOs = 272
number of NR cGTOs = 132
basis = 631g*
ecp = {}
CPU time:         0.38


******** <class 'pyscf.dft.rks.RKS'> ********
method = RKS
initial guess = minao
damping factor = 0
level_shift factor = 0
DIIS = <class 'pyscf.scf.diis.CDIIS'>
diis_start_cycle = 1
diis_space = 8
SCF conv_tol = 1e-09
SCF conv_tol_grad = None
SCF max_cycles = 50
direct_scf = True
direct_scf_tol = 1e-13
chkfile to save SCF result = /scratch/global/yangjunjie/tmpey3cdu8a
max_memory 256000 MB (current use 81 MB)
XC library pyscf.dft.libxc version 5.2.0
    S. Lehtola, C. Steigemann, M. J. Oliveira, and M. A. Marques, SoftwareX 7, 1 (2018)
XC functionals = b3lyp
    P. A. M. Dirac, Math. Proc. Cambridge Philos. Soc. 26, 376 (1930)
    F. Bloch, Z. Phys. 57, 545 (1929)
    A. D. Becke, Phys. Rev. A 38, 3098 (1988)
    C. Lee, W. Yang, and R. G. Parr, Phys. Rev. B 37, 785 (1988)
    B. Miehlich, A. Savin, H. Stoll, and H. Preuss, Chem. Phys. Lett. 157, 200 (1989)
    S. H. Vosko, L. Wilk, and M. Nusair, Can. J. Phys. 58, 1200 (1980)
radial grids: 
    Treutler-Ahlrichs [JCP 102, 346 (1995); DOI:10.1063/1.469408] (M4) radial grids
    
becke partition: Becke, JCP 88, 2547 (1988); DOI:10.1063/1.454033
pruning grids: <function nwchem_prune at 0x7fde9bbcaee0>
grids dens level: 3
symmetrized grids: False
atomic radii adjust function: <function treutler_atomic_radii_adjust at 0x7fde9bbcae50>
small_rho_cutoff = 1e-07
Set gradient conv threshold to 3.16228e-05
atom C rad-grids = 75, ang-grids = [ 50  50  50  50  50  50  50  50  50  50  50  50  50  50  50  50  50  50
  50  50  50  50  50  86  86  86  86  86  86  86  86  86  86 266 266 266
 266 266 266 266 302 302 302 302 302 302 302 302 302 302 302 302 302 302
 302 302 302 302 302 302 266 266 266 266 266 266 266 266 266 266 266 266
 266 266 266]
atom N rad-grids = 75, ang-grids = [ 50  50  50  50  50  50  50  50  50  50  50  50  50  50  50  50  50  50
  50  50  50  50  50  86  86  86  86  86  86  86  86  86 266 266 266 266
 266 266 266 302 302 302 302 302 302 302 302 302 302 302 302 302 302 302
 302 302 302 302 266 266 266 266 266 266 266 266 266 266 266 266 266 266
 266 266 266]
atom H rad-grids = 50, ang-grids = [ 50  50  50  50  50  50  50  50  50  50  50  50  50  50  86  86  86  86
 266 266 266 266 302 302 302 302 302 302 302 302 302 302 302 302 302 266
 266 266 266 266 266 266 266 266 266 266 266 266 266 266]
atom Cl rad-grids = 80, ang-grids = [ 50  50  50  50  50  50  50  50  50  50  50  50  50  50  50  50  50  50
  50  50  50  50  50  50  86  86  86  86  86  86  86  86  86  86  86  86
  86 350 350 350 350 350 350 350 350 350 434 434 434 434 434 434 434 434
 434 434 434 434 434 434 434 434 434 434 350 350 350 350 350 350 350 350
 350 350 350 350 350 350 350 350]
tot grids = 196530
Drop grids 32964
    CPU time for setting up grids      3.18 sec, wall time      0.14 sec
nelec by numeric integration = 67.97620964016146
    CPU time for vxc      5.96 sec, wall time      0.21 sec
E1 = -1760.0658293319727  Ecoul = 707.9750542173639  Exc = -70.37297025844894
init E= -749.027879259954
cond(S) = 6056.749542196807
    CPU time for initialize scf     15.90 sec, wall time      0.66 sec
  HOMO = -0.29287386756618  LUMO = -0.0978888908740287
  mo_energy =
[-1.01597243e+02 -1.44095016e+01 -1.02909344e+01 -1.02903193e+01
 -1.02892674e+01 -1.02890829e+01 -1.02852938e+01 -1.02848080e+01
 -9.53822877e+00 -7.29412884e+00 -7.29290676e+00 -7.29290624e+00
 -1.10294015e+00 -9.37655925e-01 -9.31331424e-01 -8.84176649e-01
 -7.57278149e-01 -7.12387031e-01 -7.04064213e-01 -5.76783596e-01
 -5.30262375e-01 -5.12875149e-01 -4.73593766e-01 -4.72892043e-01
 -4.62822285e-01 -4.59319757e-01 -4.37401297e-01 -4.32281969e-01
 -3.95532218e-01 -3.43594562e-01 -3.42797853e-01 -3.25914367e-01
 -3.01029724e-01 -2.92873868e-01 -9.78888909e-02 -7.96070342e-02
 -3.57526529e-02  5.27940359e-02  6.80579199e-02  7.86486999e-02
  9.04064433e-02  1.13394964e-01  1.21349931e-01  1.22533673e-01
  1.44499993e-01  1.62017236e-01  1.97039736e-01  2.40393738e-01
  2.54961625e-01  2.60972299e-01  3.59782931e-01  3.82053901e-01
  4.03515820e-01  4.15186286e-01  4.15192884e-01  4.21771074e-01
  4.65638356e-01  4.75157688e-01  4.87852740e-01  5.04964175e-01
  5.24962837e-01  5.37644866e-01  5.41903252e-01  5.50136217e-01
  5.53345022e-01  5.54703177e-01  5.55661371e-01  6.07749852e-01
  6.22053323e-01  6.38880930e-01  6.71227195e-01  7.64732762e-01
  7.72749944e-01  7.85862164e-01  7.87595428e-01  7.91898772e-01
  7.98746651e-01  8.02628601e-01  8.29570776e-01  8.43683414e-01
  8.49375476e-01  8.64118782e-01  8.80521442e-01  8.97933838e-01
  9.02325664e-01  9.20277886e-01  9.82079244e-01  1.00224568e+00
  1.03583987e+00  1.07431730e+00  1.12235969e+00  1.13893048e+00
  1.15896425e+00  1.17889624e+00  1.30860476e+00  1.34464415e+00
  1.39570367e+00  1.41143268e+00  1.41179332e+00  1.42183378e+00
  1.44676213e+00  1.45789404e+00  1.62391853e+00  1.62478954e+00
  1.63928186e+00  1.70310205e+00  1.74777324e+00  1.77313102e+00
  1.87066637e+00  1.89411695e+00  1.98173443e+00  2.05215679e+00
  2.06013593e+00  2.09773659e+00  2.10581156e+00  2.13012263e+00
  2.14402058e+00  2.16670552e+00  2.18089089e+00  2.22076094e+00
  2.24569341e+00  2.30807271e+00  2.47694756e+00  2.48425395e+00
  2.57051814e+00  2.61286674e+00  2.62272844e+00  2.63605974e+00
  2.69756004e+00  2.71202351e+00  2.95952411e+00  3.31154458e+00]
nelec by numeric integration = 68.00002401107244
    CPU time for vxc      5.85 sec, wall time      0.21 sec
E1 = -1768.1084291500567  Ecoul = 717.402460479232  Exc = -70.81723442609038
cycle= 1 E= -748.087336983811  delta_E= 0.941  |g|= 0.378  |ddm|= 3.93
    CPU time for cycle= 1      6.34 sec, wall time      0.23 sec
  HOMO = -0.197012036776512  LUMO = 0.0124946074934523
  mo_energy =
[-1.01360710e+02 -1.41892773e+01 -1.01881993e+01 -1.01870079e+01
 -1.01528047e+01 -1.01331911e+01 -1.00953587e+01 -1.00947572e+01
 -9.31621256e+00 -7.07721762e+00 -7.06716899e+00 -7.06716103e+00
 -8.98609994e-01 -7.78227747e-01 -7.58293482e-01 -7.31263792e-01
 -6.20781583e-01 -6.00597160e-01 -5.99823579e-01 -5.09779067e-01
 -4.58291865e-01 -4.37607930e-01 -4.10768617e-01 -4.04090904e-01
 -4.01957843e-01 -3.75847982e-01 -3.64072633e-01 -3.40878666e-01
 -3.38962622e-01 -2.48846090e-01 -2.35727140e-01 -2.29141722e-01
 -2.28522551e-01 -1.97012037e-01  1.24946075e-02  1.46276410e-02
  8.09384678e-02  1.09924858e-01  1.32055200e-01  1.38758406e-01
  1.60534393e-01  1.66843135e-01  1.77397091e-01  1.84555698e-01
  1.84614940e-01  2.12189384e-01  2.77100013e-01  3.13333874e-01
  3.41265714e-01  3.47458494e-01  4.64705908e-01  4.66667672e-01
  4.78155397e-01  5.12827949e-01  5.13043056e-01  5.15423183e-01
  5.34917563e-01  5.62934001e-01  5.70446923e-01  5.93994675e-01
  6.00363313e-01  6.04803754e-01  6.18533814e-01  6.25231757e-01
  6.27462930e-01  6.32557726e-01  6.60224101e-01  6.75822942e-01
  7.12987788e-01  7.17463255e-01  7.59085490e-01  8.30489076e-01
  8.48478152e-01  8.69283074e-01  8.76598229e-01  8.85990316e-01
  9.12440809e-01  9.26379290e-01  9.34119300e-01  9.47137137e-01
  9.53640945e-01  9.73285134e-01  9.78156946e-01  9.97730703e-01
  1.01541260e+00  1.01950055e+00  1.06621876e+00  1.09033459e+00
  1.10112467e+00  1.14195025e+00  1.18039010e+00  1.23403876e+00
  1.24511176e+00  1.28920599e+00  1.41128377e+00  1.42079872e+00
  1.47324609e+00  1.50985116e+00  1.51156231e+00  1.51736104e+00
  1.55222468e+00  1.56196886e+00  1.73585861e+00  1.73599219e+00
  1.73742709e+00  1.80232106e+00  1.86819646e+00  1.88098686e+00
  1.97561360e+00  1.99616571e+00  2.09628117e+00  2.16548640e+00
  2.17024110e+00  2.21234833e+00  2.21389608e+00  2.24412746e+00
  2.25534332e+00  2.27141296e+00  2.28483307e+00  2.32803757e+00
  2.36672427e+00  2.41809431e+00  2.58213641e+00  2.59672859e+00
  2.69862412e+00  2.72577038e+00  2.74006930e+00  2.76345909e+00
  2.83107270e+00  2.83689450e+00  3.09166474e+00  3.44249605e+00]
nelec by numeric integration = 68.0000215838619
    CPU time for vxc      6.05 sec, wall time      0.22 sec
E1 = -1760.7149602205857  Ecoul = 709.4272087638124  Exc = -70.23679432609121
cycle= 2 E= -748.08867966976  delta_E= -0.00134  |g|=  0.4  |ddm|= 0.97
    CPU time for cycle= 2      6.55 sec, wall time      0.23 sec
  HOMO = -0.262952011666185  LUMO = -0.0308009140712109
  mo_energy =
[-1.01471317e+02 -1.43566965e+01 -1.02133377e+01 -1.02128211e+01
 -1.02035345e+01 -1.01973084e+01 -1.01969801e+01 -1.01960399e+01
 -9.40595729e+00 -7.16883871e+00 -7.15905200e+00 -7.15904275e+00
 -9.61074361e-01 -8.13493638e-01 -8.10454981e-01 -7.68980457e-01
 -6.48645971e-01 -6.42250398e-01 -6.31593173e-01 -5.36295786e-01
 -4.87288586e-01 -4.80719940e-01 -4.38083108e-01 -4.21958946e-01
 -4.19218749e-01 -4.13321885e-01 -4.07431548e-01 -3.75353002e-01
 -3.73820788e-01 -2.97736804e-01 -2.68617338e-01 -2.65353752e-01
 -2.64923938e-01 -2.62952012e-01 -3.08009141e-02 -1.76540157e-02
  5.81589741e-02  9.24051341e-02  1.22595544e-01  1.28951736e-01
  1.39342548e-01  1.49706388e-01  1.57314851e-01  1.72967184e-01
  1.76903971e-01  2.03977485e-01  2.48257950e-01  2.88730247e-01
  3.13830401e-01  3.15668221e-01  4.35818512e-01  4.41401276e-01
  4.48704392e-01  4.84765296e-01  4.86733204e-01  4.86997602e-01
  5.07158092e-01  5.28560713e-01  5.49032674e-01  5.71403473e-01
  5.79367421e-01  5.79776479e-01  5.91694225e-01  5.93096239e-01
  5.94698706e-01  6.05377139e-01  6.18993698e-01  6.48630577e-01
  6.80711921e-01  6.88741961e-01  7.29339013e-01  8.15844258e-01
  8.27150630e-01  8.40003838e-01  8.46306450e-01  8.49787801e-01
  8.85591203e-01  8.88011818e-01  9.10604422e-01  9.14884595e-01
  9.27232263e-01  9.37689735e-01  9.37952935e-01  9.74034400e-01
  9.80619132e-01  9.82884614e-01  1.03028814e+00  1.06571770e+00
  1.07844823e+00  1.11610762e+00  1.16016597e+00  1.20232240e+00
  1.21074114e+00  1.24300959e+00  1.37012660e+00  1.38893014e+00
  1.45257390e+00  1.46128105e+00  1.47743336e+00  1.47767468e+00
  1.50902976e+00  1.51664277e+00  1.69372430e+00  1.71300289e+00
  1.71319447e+00  1.76455959e+00  1.82206969e+00  1.83490381e+00
  1.93360049e+00  1.96106639e+00  2.05435204e+00  2.12436245e+00
  2.12542631e+00  2.16540270e+00  2.17226504e+00  2.20987682e+00
  2.21738832e+00  2.25297791e+00  2.26567549e+00  2.28954972e+00
  2.31702219e+00  2.37184826e+00  2.54324343e+00  2.54994934e+00
  2.64983165e+00  2.68120675e+00  2.69413390e+00  2.71767894e+00
  2.77841704e+00  2.78913735e+00  3.04009800e+00  3.39513748e+00]
nelec by numeric integration = 68.00002137416865
    CPU time for vxc      5.89 sec, wall time      0.21 sec
E1 = -1764.1919154069444  Ecoul = 713.128119931307  Exc = -70.49990261514252
cycle= 3 E= -748.127831977676  delta_E= -0.0392  |g|= 0.0815  |ddm|= 0.482
    CPU time for cycle= 3      6.40 sec, wall time      0.23 sec
  HOMO = -0.258088799649611  LUMO = -0.0317768299824741
  mo_energy =
[-1.01494191e+02 -1.43265886e+01 -1.02297558e+01 -1.02294205e+01
 -1.02175058e+01 -1.02083720e+01 -1.02072234e+01 -1.02069504e+01
 -9.42499003e+00 -7.18815219e+00 -7.17852138e+00 -7.17851136e+00
 -9.55895468e-01 -8.20592609e-01 -8.14250779e-01 -7.73795385e-01
 -6.54483874e-01 -6.43343406e-01 -6.37093387e-01 -5.39855924e-01
 -4.90582323e-01 -4.84178858e-01 -4.42677191e-01 -4.24723081e-01
 -4.22595983e-01 -4.16326211e-01 -4.07691863e-01 -3.82743530e-01
 -3.77279768e-01 -2.98104385e-01 -2.73780407e-01 -2.73393340e-01
 -2.72817916e-01 -2.58088800e-01 -3.17768300e-02 -2.19215299e-02
  5.33353699e-02  9.01893179e-02  1.20788093e-01  1.26968811e-01
  1.37142571e-01  1.48470071e-01  1.55939552e-01  1.71883049e-01
  1.75433062e-01  2.02471329e-01  2.46941154e-01  2.85699512e-01
  3.12686541e-01  3.13346679e-01  4.28623338e-01  4.38648422e-01
  4.46273059e-01  4.80997797e-01  4.81295871e-01  4.81429966e-01
  5.03453976e-01  5.26807264e-01  5.45685804e-01  5.67751073e-01
  5.75720497e-01  5.75868969e-01  5.88144174e-01  5.90653015e-01
  5.91431934e-01  6.00886055e-01  6.19463005e-01  6.44918831e-01
  6.77698227e-01  6.84928802e-01  7.27919802e-01  8.11747581e-01
  8.23029157e-01  8.36570967e-01  8.46514624e-01  8.50618626e-01
  8.79205294e-01  8.82565832e-01  9.06174153e-01  9.11139470e-01
  9.20576314e-01  9.30546081e-01  9.32249067e-01  9.68443186e-01
  9.74859045e-01  9.77503458e-01  1.03158934e+00  1.06255637e+00
  1.07537467e+00  1.11489900e+00  1.15740377e+00  1.20092695e+00
  1.20796521e+00  1.23950349e+00  1.36634383e+00  1.38976446e+00
  1.45174109e+00  1.45751058e+00  1.47135247e+00  1.47906994e+00
  1.51060684e+00  1.51337436e+00  1.69390848e+00  1.70795199e+00
  1.70822775e+00  1.76465093e+00  1.81744900e+00  1.83331781e+00
  1.93115108e+00  1.95661470e+00  2.04890548e+00  2.12046424e+00
  2.12075973e+00  2.16191259e+00  2.16897723e+00  2.20829581e+00
  2.21216843e+00  2.24908337e+00  2.26189854e+00  2.28413559e+00
  2.31419346e+00  2.37180260e+00  2.53868388e+00  2.54839935e+00
  2.64642232e+00  2.67866815e+00  2.69206197e+00  2.71342651e+00
  2.77543234e+00  2.78608647e+00  3.03947914e+00  3.39172865e+00]
nelec by numeric integration = 68.000022048807
    CPU time for vxc      5.80 sec, wall time      0.21 sec
E1 = -1764.4237951513776  Ecoul = 713.3759045394506  Exc = -70.51696116915187
cycle= 4 E= -748.128985667974  delta_E= -0.00115  |g|= 0.0364  |ddm|= 0.0946
    CPU time for cycle= 4      6.34 sec, wall time      0.23 sec
  HOMO = -0.261422576532997  LUMO = -0.0307302845971445
  mo_energy =
[-1.01489728e+02 -1.43361851e+01 -1.02284192e+01 -1.02283999e+01
 -1.02106834e+01 -1.02093858e+01 -1.02005075e+01 -1.02004965e+01
 -9.42178053e+00 -7.18476313e+00 -7.17522249e+00 -7.17521234e+00
 -9.57071651e-01 -8.19903786e-01 -8.10907575e-01 -7.71840545e-01
 -6.55351029e-01 -6.42622147e-01 -6.34985750e-01 -5.38239851e-01
 -4.89097082e-01 -4.82775048e-01 -4.40784305e-01 -4.25899295e-01
 -4.23686423e-01 -4.14686862e-01 -4.07440619e-01 -3.82328571e-01
 -3.75789261e-01 -2.96571169e-01 -2.72942545e-01 -2.72640689e-01
 -2.71306004e-01 -2.61422577e-01 -3.07302846e-02 -2.00750050e-02
  5.32529992e-02  9.12972705e-02  1.20495062e-01  1.26930336e-01
  1.38341705e-01  1.48684018e-01  1.56566558e-01  1.70710552e-01
  1.76225154e-01  2.02034610e-01  2.47990683e-01  2.87771200e-01
  3.13399635e-01  3.14278918e-01  4.28966140e-01  4.39698877e-01
  4.46912125e-01  4.81216016e-01  4.81490000e-01  4.81857480e-01
  5.05354951e-01  5.27889917e-01  5.45385709e-01  5.67550942e-01
  5.77332057e-01  5.77687435e-01  5.90706910e-01  5.92367421e-01
  5.92525870e-01  6.03170035e-01  6.18838551e-01  6.46477113e-01
  6.80162103e-01  6.84999162e-01  7.26841633e-01  8.12287595e-01
  8.25908634e-01  8.37634969e-01  8.48162640e-01  8.48497860e-01
  8.79430971e-01  8.82394019e-01  9.06303001e-01  9.13183978e-01
  9.21306462e-01  9.30759531e-01  9.33589543e-01  9.69682149e-01
  9.74657864e-01  9.77529738e-01  1.03058803e+00  1.06271136e+00
  1.07626893e+00  1.11562886e+00  1.15942349e+00  1.20159097e+00
  1.20727729e+00  1.24138805e+00  1.36857429e+00  1.38988065e+00
  1.45198989e+00  1.46047976e+00  1.47446371e+00  1.47677911e+00
  1.51008328e+00  1.51399439e+00  1.69414831e+00  1.70687723e+00
  1.70722148e+00  1.76452883e+00  1.82023174e+00  1.83480971e+00
  1.93366061e+00  1.95869849e+00  2.05181234e+00  2.12242657e+00
  2.12331791e+00  2.16490728e+00  2.16997867e+00  2.20903990e+00
  2.21143103e+00  2.24786396e+00  2.26071926e+00  2.28627108e+00
  2.31629084e+00  2.37154194e+00  2.54092565e+00  2.54982128e+00
  2.64821969e+00  2.68024015e+00  2.69241963e+00  2.71506323e+00
  2.77768327e+00  2.78727245e+00  3.03916901e+00  3.39296707e+00]
nelec by numeric integration = 68.00002173900062
    CPU time for vxc      5.91 sec, wall time      0.21 sec
E1 = -1764.371499468913  Ecoul = 713.3199415609954  Exc = -70.51358506322268
cycle= 5 E= -748.129276858036  delta_E= -0.000291  |g|= 0.0106  |ddm|= 0.044
    CPU time for cycle= 5      6.42 sec, wall time      0.23 sec
  HOMO = -0.259995768376597  LUMO = -0.0302951460593826
  mo_energy =
[-1.01487013e+02 -1.43336920e+01 -1.02250661e+01 -1.02250076e+01
 -1.02122675e+01 -1.02069583e+01 -1.02017011e+01 -1.02016418e+01
 -9.41969416e+00 -7.18260200e+00 -7.17307944e+00 -7.17306921e+00
 -9.55378973e-01 -8.18966194e-01 -8.11220241e-01 -7.71014331e-01
 -6.54281007e-01 -6.41963080e-01 -6.34638818e-01 -5.37968884e-01
 -4.88483561e-01 -4.82650088e-01 -4.40375282e-01 -4.24979718e-01
 -4.22813038e-01 -4.14660562e-01 -4.06498676e-01 -3.81414978e-01
 -3.75544202e-01 -2.96496674e-01 -2.72132658e-01 -2.71858193e-01
 -2.70700157e-01 -2.59995768e-01 -3.02951461e-02 -1.95196552e-02
  5.42077148e-02  9.13378109e-02  1.20929793e-01  1.27426228e-01
  1.38839232e-01  1.48886482e-01  1.56694925e-01  1.71367756e-01
  1.76213607e-01  2.02616199e-01  2.48400520e-01  2.87690834e-01
  3.13990544e-01  3.14695367e-01  4.29647665e-01  4.40192016e-01
  4.47361059e-01  4.81800571e-01  4.82077075e-01  4.82449905e-01
  5.05785334e-01  5.28206220e-01  5.45999050e-01  5.68299787e-01
  5.77722153e-01  5.78153346e-01  5.90776010e-01  5.92502397e-01
  5.92659055e-01  6.03198924e-01  6.19952847e-01  6.46928647e-01
  6.79851203e-01  6.86100775e-01  7.28077930e-01  8.13214278e-01
  8.25288663e-01  8.38120964e-01  8.48395637e-01  8.49379380e-01
  8.80318862e-01  8.83388891e-01  9.06894009e-01  9.13129133e-01
  9.22031226e-01  9.31706423e-01  9.33921590e-01  9.70248212e-01
  9.75657298e-01  9.78317519e-01  1.03159250e+00  1.06336231e+00
  1.07670784e+00  1.11610510e+00  1.15926783e+00  1.20201126e+00
  1.20811671e+00  1.24190902e+00  1.36896149e+00  1.39024485e+00
  1.45255368e+00  1.46032598e+00  1.47455558e+00  1.47780718e+00
  1.51113578e+00  1.51532037e+00  1.69487880e+00  1.70806506e+00
  1.70840143e+00  1.76562170e+00  1.82040205e+00  1.83505594e+00
  1.93346662e+00  1.95921902e+00  2.05211158e+00  2.12303892e+00
  2.12363230e+00  2.16465981e+00  2.17109478e+00  2.20997009e+00
  2.21261998e+00  2.24894565e+00  2.26181236e+00  2.28693827e+00
  2.31631750e+00  2.37276764e+00  2.54144319e+00  2.55024784e+00
  2.64875684e+00  2.68072126e+00  2.69339233e+00  2.71580644e+00
  2.77778682e+00  2.78802385e+00  3.04037137e+00  3.39367987e+00]
nelec by numeric integration = 68.00002176951043
    CPU time for vxc      5.92 sec, wall time      0.21 sec
E1 = -1764.3066752494758  Ecoul = 713.2510417291448  Exc = -70.50953678250599
cycle= 6 E= -748.129304189733  delta_E= -2.73e-05  |g|= 0.00448  |ddm|= 0.0154
    CPU time for cycle= 6      6.43 sec, wall time      0.23 sec
  HOMO = -0.260274923470506  LUMO = -0.0303423881772124
  mo_energy =
[-1.01487033e+02 -1.43342064e+01 -1.02261870e+01 -1.02261113e+01
 -1.02114870e+01 -1.02070671e+01 -1.02014281e+01 -1.02013725e+01
 -9.41975569e+00 -7.18265591e+00 -7.17313714e+00 -7.17312689e+00
 -9.55958502e-01 -8.19121939e-01 -8.11112389e-01 -7.71283217e-01
 -6.54333751e-01 -6.42105518e-01 -6.34688524e-01 -5.38017082e-01
 -4.88650398e-01 -4.82640484e-01 -4.40539747e-01 -4.25102218e-01
 -4.22917192e-01 -4.14600812e-01 -4.06780705e-01 -3.81507809e-01
 -3.75589086e-01 -2.96474094e-01 -2.72236439e-01 -2.71976371e-01
 -2.70902244e-01 -2.60274923e-01 -3.03423882e-02 -1.96918199e-02
  5.41003107e-02  9.13893291e-02  1.20890513e-01  1.27343658e-01
  1.38747981e-01  1.48885039e-01  1.56730917e-01  1.71265881e-01
  1.76267759e-01  2.02519353e-01  2.48290873e-01  2.87750228e-01
  3.13855895e-01  3.14617732e-01  4.29621755e-01  4.40065214e-01
  4.47278331e-01  4.81702905e-01  4.81980462e-01  4.82273779e-01
  5.05655807e-01  5.28157479e-01  5.45925522e-01  5.68188336e-01
  5.77622628e-01  5.78002424e-01  5.90798288e-01  5.92516996e-01
  5.92620494e-01  6.03216487e-01  6.19659544e-01  6.46793104e-01
  6.79984493e-01  6.85858175e-01  7.27831688e-01  8.12979523e-01
  8.25547213e-01  8.38006484e-01  8.48436877e-01  8.49157669e-01
  8.80210671e-01  8.83250722e-01  9.06893022e-01  9.13206904e-01
  9.21945926e-01  9.31588716e-01  9.33913609e-01  9.70172911e-01
  9.75542031e-01  9.78240996e-01  1.03137584e+00  1.06327641e+00
  1.07662566e+00  1.11598885e+00  1.15933388e+00  1.20192915e+00
  1.20799399e+00  1.24176067e+00  1.36881907e+00  1.39019572e+00
  1.45243030e+00  1.46037124e+00  1.47453674e+00  1.47767222e+00
  1.51084042e+00  1.51489303e+00  1.69468627e+00  1.70794436e+00
  1.70827725e+00  1.76531403e+00  1.82035181e+00  1.83501791e+00
  1.93353580e+00  1.95902369e+00  2.05200681e+00  2.12281433e+00
  2.12354231e+00  2.16475111e+00  2.17075049e+00  2.20972283e+00
  2.21248992e+00  2.24883540e+00  2.26169011e+00  2.28672319e+00
  2.31638530e+00  2.37240827e+00  2.54126272e+00  2.55014057e+00
  2.64860521e+00  2.68059483e+00  2.69316806e+00  2.71561138e+00
  2.77780893e+00  2.78783454e+00  3.04008389e+00  3.39353441e+00]
nelec by numeric integration = 68.00002176147795
    CPU time for vxc      6.66 sec, wall time      0.24 sec
E1 = -1764.32075820877  Ecoul = 713.2656133697582  Exc = -70.51003099903149
cycle= 7 E= -748.129309724939  delta_E= -5.54e-06  |g|= 0.0005  |ddm|= 0.00452
    CPU time for cycle= 7      7.55 sec, wall time      0.27 sec
  HOMO = -0.260250590517648  LUMO = -0.0303352233378769
  mo_energy =
[-1.01487274e+02 -1.43341848e+01 -1.02261167e+01 -1.02260603e+01
 -1.02116256e+01 -1.02072664e+01 -1.02013160e+01 -1.02012745e+01
 -9.41994200e+00 -7.18285021e+00 -7.17332763e+00 -7.17331739e+00
 -9.55930410e-01 -8.19206296e-01 -8.11113260e-01 -7.71239342e-01
 -6.54397232e-01 -6.42084167e-01 -6.34669959e-01 -5.38005620e-01
 -4.88626063e-01 -4.82615700e-01 -4.40506337e-01 -4.25145438e-01
 -4.22963963e-01 -4.14615555e-01 -4.06760920e-01 -3.81584638e-01
 -3.75574719e-01 -2.96474489e-01 -2.72309976e-01 -2.72034717e-01
 -2.70876422e-01 -2.60250591e-01 -3.03352233e-02 -1.96589402e-02
  5.40367075e-02  9.13799123e-02  1.20885312e-01  1.27351129e-01
  1.38769608e-01  1.48886503e-01  1.56731384e-01  1.71244302e-01
  1.76272876e-01  2.02516530e-01  2.48299994e-01  2.87757581e-01
  3.13879430e-01  3.14635573e-01  4.29555274e-01  4.40079855e-01
  4.47289152e-01  4.81651140e-01  4.81927814e-01  4.82240305e-01
  5.05673969e-01  5.28166501e-01  5.45887521e-01  5.68164257e-01
  5.77643760e-01  5.78035727e-01  5.90807629e-01  5.92514040e-01
  5.92611801e-01  6.03224296e-01  6.19667030e-01  6.46822714e-01
  6.79988878e-01  6.85878801e-01  7.27833502e-01  8.13006519e-01
  8.25528809e-01  8.38030725e-01  8.48464572e-01  8.49158907e-01
  8.80147329e-01  8.83187358e-01  9.06857690e-01  9.13205425e-01
  9.21900141e-01  9.31515936e-01  9.33890127e-01  9.70154975e-01
  9.75477474e-01  9.78192386e-01  1.03139670e+00  1.06324671e+00
  1.07663060e+00  1.11599298e+00  1.15934185e+00  1.20194016e+00
  1.20795841e+00  1.24178394e+00  1.36884233e+00  1.39020231e+00
  1.45244639e+00  1.46038755e+00  1.47455231e+00  1.47767021e+00
  1.51086288e+00  1.51492976e+00  1.69470933e+00  1.70786528e+00
  1.70820136e+00  1.76533782e+00  1.82036885e+00  1.83503161e+00
  1.93354031e+00  1.95906055e+00  2.05202320e+00  2.12284989e+00
  2.12356736e+00  2.16475582e+00  2.17078349e+00  2.20974214e+00
  2.21241485e+00  2.24877111e+00  2.26162902e+00  2.28676297e+00
  2.31638642e+00  2.37243647e+00  2.54129609e+00  2.55015206e+00
  2.64863423e+00  2.68061261e+00  2.69319602e+00  2.71564696e+00
  2.77781668e+00  2.78786125e+00  3.04011331e+00  3.39356148e+00]
nelec by numeric integration = 68.00002176397399
    CPU time for vxc      6.08 sec, wall time      0.22 sec
E1 = -1764.3223650068944  Ecoul = 713.2673665173044  Exc = -70.51017741006996
cycle= 8 E= -748.129309786556  delta_E= -6.16e-08  |g|= 0.000181  |ddm|= 0.000638
    CPU time for cycle= 8      6.88 sec, wall time      0.25 sec
  HOMO = -0.26024991291546  LUMO = -0.030327556202566
  mo_energy =
[-1.01487280e+02 -1.43341825e+01 -1.02261074e+01 -1.02260396e+01
 -1.02115697e+01 -1.02072430e+01 -1.02013505e+01 -1.02012985e+01
 -9.41994168e+00 -7.18285188e+00 -7.17332743e+00 -7.17331719e+00
 -9.55926155e-01 -8.19197291e-01 -8.11106102e-01 -7.71240582e-01
 -6.54390544e-01 -6.42083631e-01 -6.34665279e-01 -5.38000070e-01
 -4.88623339e-01 -4.82620690e-01 -4.40509098e-01 -4.25137098e-01
 -4.22955584e-01 -4.14604114e-01 -4.06757136e-01 -3.81579900e-01
 -3.75573137e-01 -2.96466947e-01 -2.72306025e-01 -2.72031404e-01
 -2.70877802e-01 -2.60249913e-01 -3.03275562e-02 -1.96607474e-02
  5.40424851e-02  9.13828483e-02  1.20888828e-01  1.27352081e-01
  1.38771643e-01  1.48886322e-01  1.56735022e-01  1.71249510e-01
  1.76272859e-01  2.02520059e-01  2.48303284e-01  2.87761627e-01
  3.13879408e-01  3.14636693e-01  4.29551502e-01  4.40081066e-01
  4.47291302e-01  4.81654047e-01  4.81930737e-01  4.82245144e-01
  5.05677231e-01  5.28169427e-01  5.45893719e-01  5.68169245e-01
  5.77643022e-01  5.78033484e-01  5.90810478e-01  5.92518965e-01
  5.92621832e-01  6.03227884e-01  6.19671843e-01  6.46821114e-01
  6.79991297e-01  6.85881168e-01  7.27838914e-01  8.13007890e-01
  8.25540214e-01  8.38029817e-01  8.48457755e-01  8.49162695e-01
  8.80153254e-01  8.83192858e-01  9.06862444e-01  9.13208574e-01
  9.21905662e-01  9.31521570e-01  9.33894020e-01  9.70159049e-01
  9.75480735e-01  9.78196425e-01  1.03139763e+00  1.06325135e+00
  1.07663133e+00  1.11599706e+00  1.15934292e+00  1.20194020e+00
  1.20796148e+00  1.24178657e+00  1.36884533e+00  1.39020578e+00
  1.45244756e+00  1.46038794e+00  1.47455800e+00  1.47767413e+00
  1.51086669e+00  1.51493276e+00  1.69471029e+00  1.70787793e+00
  1.70821367e+00  1.76534131e+00  1.82037282e+00  1.83503622e+00
  1.93354451e+00  1.95905853e+00  2.05202962e+00  2.12284953e+00
  2.12356884e+00  2.16476090e+00  2.17078643e+00  2.20974762e+00
  2.21242679e+00  2.24878229e+00  2.26164009e+00  2.28676144e+00
  2.31639359e+00  2.37243975e+00  2.54129636e+00  2.55015771e+00
  2.64863488e+00  2.68061716e+00  2.69319787e+00  2.71564666e+00
  2.77782327e+00  2.78786435e+00  3.04011661e+00  3.39356404e+00]
nelec by numeric integration = 68.00002176363165
    CPU time for vxc      5.84 sec, wall time      0.21 sec
E1 = -1764.32199821034  Ecoul = 713.2669798957995  Exc = -70.51015759240491
cycle= 9 E= -748.129309793841  delta_E= -7.29e-09  |g|= 4.71e-05  |ddm|= 0.000163
    CPU time for cycle= 9      6.37 sec, wall time      0.23 sec
  HOMO = -0.26025544553181  LUMO = -0.0303326150400036
  mo_energy =
[-1.01487251e+02 -1.43341904e+01 -1.02261102e+01 -1.02260500e+01
 -1.02115860e+01 -1.02072309e+01 -1.02013492e+01 -1.02013048e+01
 -9.41991714e+00 -7.18282703e+00 -7.17330239e+00 -7.17329215e+00
 -9.55931511e-01 -8.19187666e-01 -8.11111473e-01 -7.71244250e-01
 -6.54385792e-01 -6.42087997e-01 -6.34669257e-01 -5.38003899e-01
 -4.88628355e-01 -4.82622878e-01 -4.40511690e-01 -4.25135733e-01
 -4.22953875e-01 -4.14608126e-01 -4.06761019e-01 -3.81572279e-01
 -3.75577028e-01 -2.96471996e-01 -2.72295552e-01 -2.72022728e-01
 -2.70879440e-01 -2.60255446e-01 -3.03326150e-02 -1.96642594e-02
  5.40483255e-02  9.13819430e-02  1.20887643e-01  1.27350994e-01
  1.38767518e-01  1.48885231e-01  1.56732889e-01  1.71249526e-01
  1.76271870e-01  2.02518673e-01  2.48300006e-01  2.87758202e-01
  3.13876203e-01  3.14633091e-01  4.29561114e-01  4.40079089e-01
  4.47288769e-01  4.81661400e-01  4.81938193e-01  4.82249125e-01
  5.05673786e-01  5.28165876e-01  5.45895771e-01  5.68170373e-01
  5.77640208e-01  5.78030920e-01  5.90806909e-01  5.92516179e-01
  5.92618112e-01  6.03224398e-01  6.19668425e-01  6.46818369e-01
  6.79987761e-01  6.85878386e-01  7.27836443e-01  8.13005275e-01
  8.25535720e-01  8.38027381e-01  8.48455832e-01  8.49159942e-01
  8.80160560e-01  8.83200518e-01  9.06863887e-01  9.13206249e-01
  9.21910957e-01  9.31531002e-01  9.33895393e-01  9.70160357e-01
  9.75488149e-01  9.78200871e-01  1.03139416e+00  1.06325290e+00
  1.07663023e+00  1.11599435e+00  1.15934023e+00  1.20193806e+00
  1.20796457e+00  1.24178164e+00  1.36884093e+00  1.39020216e+00
  1.45244456e+00  1.46038317e+00  1.47455310e+00  1.47767110e+00
  1.51086138e+00  1.51492868e+00  1.69470588e+00  1.70788197e+00
  1.70821747e+00  1.76533742e+00  1.82036809e+00  1.83503139e+00
  1.93354010e+00  1.95905527e+00  2.05202472e+00  2.12284563e+00
  2.12356440e+00  2.16475548e+00  2.17078238e+00  2.20974263e+00
  2.21243104e+00  2.24878465e+00  2.26164215e+00  2.28675780e+00
  2.31638765e+00  2.37243493e+00  2.54129254e+00  2.55015247e+00
  2.64863017e+00  2.68061237e+00  2.69319288e+00  2.71564223e+00
  2.77781756e+00  2.78785937e+00  3.04011136e+00  3.39355906e+00]
nelec by numeric integration = 68.00002176328515
    CPU time for vxc      5.82 sec, wall time      0.21 sec
E1 = -1764.3218656764777  Ecoul = 713.2668359954988  Exc = -70.51014622657544
cycle= 10 E= -748.12930979445  delta_E= -6.09e-10  |g|= 1.59e-05  |ddm|= 7.94e-05
    CPU time for cycle= 10      6.32 sec, wall time      0.23 sec
  HOMO = -0.260255510961362  LUMO = -0.030331213407517
  mo_energy =
[-1.01487264e+02 -1.43341926e+01 -1.02261099e+01 -1.02260397e+01
 -1.02115798e+01 -1.02072331e+01 -1.02013549e+01 -1.02013002e+01
 -9.41992809e+00 -7.18283817e+00 -7.17331356e+00 -7.17330332e+00
 -9.55930128e-01 -8.19192168e-01 -8.11110108e-01 -7.71242741e-01
 -6.54387335e-01 -6.42086733e-01 -6.34667738e-01 -5.38002427e-01
 -4.88626794e-01 -4.82622145e-01 -4.40510568e-01 -4.25136413e-01
 -4.22954559e-01 -4.14607083e-01 -4.06759848e-01 -3.81575131e-01
 -3.75575597e-01 -2.96470783e-01 -2.72299759e-01 -2.72026225e-01
 -2.70878715e-01 -2.60255511e-01 -3.03312134e-02 -1.96629300e-02
  5.40461710e-02  9.13821314e-02  1.20888186e-01  1.27351363e-01
  1.38768739e-01  1.48885367e-01  1.56733634e-01  1.71249200e-01
  1.76271537e-01  2.02519694e-01  2.48300979e-01  2.87759259e-01
  3.13876707e-01  3.14634499e-01  4.29558485e-01  4.40079356e-01
  4.47289713e-01  4.81658411e-01  4.81935186e-01  4.82246742e-01
  5.05675254e-01  5.28166751e-01  5.45894782e-01  5.68169789e-01
  5.77641322e-01  5.78031950e-01  5.90807978e-01  5.92516586e-01
  5.92619727e-01  6.03225724e-01  6.19669227e-01  6.46819444e-01
  6.79988676e-01  6.85879712e-01  7.27837285e-01  8.13006988e-01
  8.25537147e-01  8.38028234e-01  8.48456153e-01  8.49159892e-01
  8.80157512e-01  8.83197138e-01  9.06863316e-01  9.13206657e-01
  9.21908892e-01  9.31527079e-01  9.33894794e-01  9.70159848e-01
  9.75485002e-01  9.78199179e-01  1.03139488e+00  1.06325210e+00
  1.07663060e+00  1.11599530e+00  1.15934107e+00  1.20193840e+00
  1.20796263e+00  1.24178321e+00  1.36884250e+00  1.39020268e+00
  1.45244563e+00  1.46038433e+00  1.47455497e+00  1.47767125e+00
  1.51086246e+00  1.51493078e+00  1.69470678e+00  1.70788058e+00
  1.70821614e+00  1.76533870e+00  1.82036965e+00  1.83503253e+00
  1.93354125e+00  1.95905658e+00  2.05202670e+00  2.12284707e+00
  2.12356589e+00  2.16475684e+00  2.17078409e+00  2.20974441e+00
  2.21242918e+00  2.24878392e+00  2.26164160e+00  2.28675933e+00
  2.31638917e+00  2.37243639e+00  2.54129402e+00  2.55015386e+00
  2.64863151e+00  2.68061388e+00  2.69319434e+00  2.71564376e+00
  2.77781906e+00  2.78786095e+00  3.04011281e+00  3.39356060e+00]
nelec by numeric integration = 68.0000217634352
    CPU time for vxc      5.82 sec, wall time      0.21 sec
E1 = -1764.3219521528831  Ecoul = 713.2669295872563  Exc = -70.51015334185038
Extra cycle  E= -748.129309794373  delta_E= 7.73e-11  |g|= 2.28e-05  |ddm|= 3.93e-05
    CPU time for scf_cycle     87.78 sec, wall time      3.23 sec
    CPU time for SCF     87.79 sec, wall time      3.23 sec
converged SCF energy = -748.129309794373
Converting <class 'pyscf.dft.rks.RKS'> to RHF


******** <class 'pyscf.tdscf.rks.TDA'> for <class 'pyscf.dft.rks.RKS'> ********
nstates = 10 singlet
wfnsym = None
conv_tol = 1e-09
eigh lindep = 1e-12
eigh level_shift = 0
eigh max_space = 50
eigh max_cycle = 100
chkfile = /scratch/global/yangjunjie/tmpey3cdu8a
max_memory 256000 MB (current use 604 MB)


davidson 0 10  |r|= 0.25  e= [0.18597774 0.19037724 0.21563977 0.22289844 0.22298476 0.23383557
 0.23412863 0.27972191 0.36185817 0.37338431]  max|de|= 0.373  lindep=    1
Old state -> New state
    4     ->     3 
    3     ->     4 
davidson 1 20  |r|= 0.0471  e= [0.18319654 0.18944843 0.21127733 0.22273715 0.22275992 0.2337746
 0.23390152 0.24932249 0.30160425 0.30439572]  max|de|= -0.069  lindep= 0.876
davidson 2 30  |r|= 0.0271  e= [0.18307151 0.18941986 0.21110367 0.22270949 0.22275923 0.23377325
 0.23388063 0.24906559 0.29950647 0.30029484]  max|de|= -0.0041  lindep= 0.801
Old state -> New state
    9     ->     8 
    8     ->     9 
davidson 3 40  |r|= 0.0512  e= [0.18306925 0.18941929 0.2110983  0.22270872 0.22275917 0.23377311
 0.23388022 0.2490262  0.29353001 0.29919997]  max|de|= -0.00676  lindep= 0.808
davidson 4 50  |r|= 0.031  e= [0.18306919 0.18941927 0.21109816 0.22270868 0.22275916 0.23377309
 0.23388019 0.24902117 0.28768473 0.2991099 ]  max|de|= -0.00585  lindep= 0.756
Old state -> New state
    8     ->     9 
root 1 converged  |r|= 1.2e-06  e= 0.1894192738158808  max|de|= -2.04e-10
root 4 converged  |r|= 2.69e-06  e= 0.22275916221068534  max|de|= -6.56e-10
davidson 5 60  |r|= 0.054  e= [0.18306919 0.18941927 0.21109816 0.22270867 0.22275916 0.23377309
 0.23388018 0.24902068 0.28394734 0.28608177]  max|de|= -0.00374  lindep=  0.8
root 0 converged  |r|= 3.94e-07  e= 0.18306918632384703  max|de|= -2.29e-11
root 2 converged  |r|= 7.93e-07  e= 0.2110981552718894  max|de|= -2.96e-11
root 3 converged  |r|= 1.4e-06  e= 0.22270867392068552  max|de|= -7.07e-11
root 5 converged  |r|= 2.34e-06  e= 0.23377308914010764  max|de|= -1.17e-10
root 6 converged  |r|= 2.83e-06  e= 0.2338801832431507  max|de|= -2.76e-10
davidson 6 68  |r|= 0.0161  e= [0.18306919 0.18941927 0.21109816 0.22270867 0.22275916 0.23377309
 0.23388018 0.24902065 0.27935015 0.28497197]  max|de|= -0.0046  lindep= 0.851
davidson 7 10  |r|= 0.0161  e= [0.18306919 0.18941927 0.21109816 0.22270867 0.22275916 0.23377309
 0.23388018 0.24902065 0.27935015 0.28497197]  max|de|= -3.33e-16  lindep= 0.998
davidson 8 13  |r|= 0.00719  e= [0.18306919 0.18941927 0.21109816 0.22270867 0.22275916 0.23377309
 0.23388018 0.24902065 0.27901767 0.28492814]  max|de|= -0.000332  lindep= 0.741
root 7 converged  |r|= 2.62e-06  e= 0.24902064561324733  max|de|= -1.33e-10
davidson 9 16  |r|= 0.00196  e= [0.18306919 0.18941927 0.21109816 0.22270867 0.22275916 0.23377309
 0.23388018 0.24902065 0.2789548  0.28491943]  max|de|= -6.29e-05  lindep= 0.919
davidson 10 18  |r|= 0.000989  e= [0.18306919 0.18941927 0.21109816 0.22270867 0.22275916 0.23377309
 0.23388018 0.24902065 0.27894747 0.28491824]  max|de|= -7.32e-06  lindep= 0.889
davidson 11 20  |r|= 0.000452  e= [0.18306919 0.18941927 0.21109816 0.22270867 0.22275916 0.23377309
 0.23388018 0.24902065 0.27894636 0.28491802]  max|de|= -1.11e-06  lindep= 0.855
davidson 12 22  |r|= 0.000234  e= [0.18306919 0.18941927 0.21109816 0.22270867 0.22275916 0.23377309
 0.23388018 0.24902065 0.27894605 0.28491791]  max|de|= -3.1e-07  lindep= 0.795
davidson 13 24  |r|= 0.00014  e= [0.18306919 0.18941927 0.21109816 0.22270867 0.22275916 0.23377309
 0.23388018 0.24902065 0.27894597 0.28491786]  max|de|= -8.47e-08  lindep= 0.883
davidson 14 26  |r|= 6.31e-05  e= [0.18306919 0.18941927 0.21109816 0.22270867 0.22275916 0.23377309
 0.23388018 0.24902065 0.27894594 0.28491784]  max|de|= -2.85e-08  lindep= 0.669
davidson 15 28  |r|= 3.7e-05  e= [0.18306919 0.18941927 0.21109816 0.22270867 0.22275916 0.23377309
 0.23388018 0.24902065 0.27894593 0.28491783]  max|de|= -8.49e-09  lindep= 0.739
davidson 16 30  |r|= 2.94e-05  e= [0.18306919 0.18941927 0.21109816 0.22270867 0.22275916 0.23377309
 0.23388018 0.24902065 0.27894593 0.28491783]  max|de|= -2.95e-09  lindep= 0.789
root 8 converged  |r|= 1.08e-05  e= 0.27894593006316404  max|de|= -8.15e-10
davidson 17 32  |r|= 1.55e-05  e= [0.18306919 0.18941927 0.21109816 0.22270867 0.22275916 0.23377309
 0.23388018 0.24902065 0.27894593 0.28491782]  max|de|= -1.65e-09  lindep= 0.857
root 9 converged  |r|= 5.12e-06  e= 0.28491782399566634  max|de|= -2.98e-10
converged 18 33  |r|= 7.18e-06  e= [0.18306919 0.18941927 0.21109816 0.22270867 0.22275916 0.23377309
 0.23388018 0.24902065 0.27894593 0.28491782]  max|de|= -2.98e-10
    CPU time for TDA    297.07 sec, wall time     10.81 sec
Excited State energies (eV)
[4.9815663  5.15436098 5.74427339 6.0602117  6.06158555 6.36128977
 6.36420395 6.77619691 7.59050538 7.75300889]
Converting <class 'pyscf.dft.rks.RKS'> to RHF


******** <class 'pyscf.tdscf.rks.TDDFT'> for <class 'pyscf.dft.rks.RKS'> ********
nstates = 10 singlet
wfnsym = None
conv_tol = 1e-09
eigh lindep = 1e-12
eigh level_shift = 0
eigh max_space = 50
eigh max_cycle = 100
chkfile = /scratch/global/yangjunjie/tmpey3cdu8a
max_memory 256000 MB (current use 663 MB)


davidson 0 10  |r|= 0.392  e= [0.18597774 0.19037724 0.21563977 0.22289844 0.22298476 0.23383557
 0.23412863 0.27972191 0.36185817 0.37338431]  max|de|= 0.373  lindep=    1
Old state -> New state
    8     ->     0 
    9     ->     1 
    0     ->     2 
    1     ->     3 
    7     ->     4 
    2     ->     5 
    4     ->     6 
    3     ->     7 
    0     ->     8 
    5     ->     9 
davidson 1 20  |r|= 0.823  e= [0.08115616 0.09268103 0.17914131 0.1890152  0.20905335 0.20918912
 0.22274529 0.22274944 0.22971578 0.23376889]  max|de|= -0.281  lindep= 0.125
Old state -> New state
    2     ->     0 
    3     ->     1 
    5     ->     2 
    1     ->     3 
    2     ->     4 
    2     ->     5 
    3     ->     6 
    5     ->     7 
    6     ->     8 
    7     ->     9 
davidson 2 30  |r|= 1.61  e= [0.03357116 0.05963647 0.07541212 0.12787569 0.16430147 0.18145628
 0.18905059 0.20858859 0.22259648 0.22275543]  max|de|= -0.146  lindep= 0.103
Old state -> New state
    2     ->     1 
    5     ->     2 
    6     ->     3 
    7     ->     4 
    8     ->     5 
    9     ->     6 
    4     ->     7 
    0     ->     8 
    7     ->     9 
davidson 3 40  |r|= 1.59  e= [0.03197362 0.10086312 0.18136082 0.18920927 0.20889016 0.22265275
 0.22276163 0.22826793 0.23377188 0.2337731 ]  max|de|=  0.2  lindep= 0.00862
Old state -> New state
    2     ->     1 
    3     ->     2 
    4     ->     3 
    5     ->     4 
    6     ->     5 
    9     ->     6 
    8     ->     7 
    9     ->     8 
    1     ->     9 
davidson 4 50  |r|= 1.19  e= [0.05672023 0.18135833 0.18919186 0.20867959 0.22260108 0.22275755
 0.23376581 0.23377099 0.23884837 0.2759485 ]  max|de|= 0.175  lindep= 0.132
Old state -> New state
    0     ->     1 
    8     ->     2 
    1     ->     3 
    2     ->     4 
    3     ->     5 
    4     ->     6 
    5     ->     7 
    6     ->     8 
    7     ->     9 
davidson 5 60  |r|= 1.19  e= [0.05515345 0.09389106 0.14981797 0.18136395 0.18918901 0.20870452
 0.2226007  0.22275753 0.23376104 0.23377105]  max|de|= -0.089  lindep= 0.0165
Old state -> New state
    2     ->     1 
    0     ->     2 
    0     ->     5 
    5     ->     6 
    6     ->     7 
    7     ->     8 
    8     ->     9 
davidson 6 70  |r|=  1.5  e= [0.00922973 0.04462386 0.08432531 0.18134917 0.18917592 0.19465461
 0.20872472 0.22260333 0.22275742 0.23376156]  max|de|= 0.14  lindep= 0.0715
Old state -> New state
    3     ->     0 
    4     ->     1 
    1     ->     2 
    6     ->     3 
    7     ->     4 
    8     ->     5 
    9     ->     6 
    5     ->     7 
    1     ->     8 
    0     ->     9 
davidson 7 80  |r|= 0.875  e= [0.18133039 0.18918904 0.19395164 0.20872311 0.22260292 0.22275752
 0.23375903 0.23377124 0.2390987  0.26672023]  max|de|= 0.257  lindep= 0.174
davidson 8 10  |r|= 0.875  e= [0.18133039 0.18918904 0.19395164 0.20872311 0.22260292 0.22275752
 0.23375903 0.23377124 0.2390987  0.26672023]  max|de|= -4.99e-14  lindep= 0.427
Old state -> New state
    9     ->     0 
    0     ->     1 
    1     ->     2 
davidson 9 20  |r|= 1.06  e= [0.12776105 0.1813315  0.18918912 0.20871416 0.22260243 0.22275751
 0.23375659 0.23377145 0.23895658 0.30799113]  max|de|= -0.139  lindep= 0.209
Old state -> New state
    0     ->     1 
    0     ->     2 
    1     ->     3 
    2     ->     4 
    3     ->     5 
    3     ->     6 
    8     ->     7 
    4     ->     8 
    5     ->     9 
davidson 10 30  |r|= 1.18  e= [0.04150908 0.11413924 0.1384802  0.18132796 0.18918921 0.20848681
 0.20872164 0.21543019 0.22259425 0.22275751]  max|de|= -0.0863  lindep= 0.163
Old state -> New state
    3     ->     1 
    4     ->     2 
    6     ->     3 
    8     ->     4 
    9     ->     5 
    7     ->     6 
    5     ->     7 
    7     ->     8 
    7     ->     9 
davidson 11 40  |r|=  1.3  e= [0.05804623 0.18133029 0.18918915 0.20872321 0.22260245 0.22275752
 0.23375992 0.23377136 0.23795821 0.23895841]  max|de|= 0.0253  lindep= 0.0704
Old state -> New state
    9     ->     8 
    8     ->     9 
davidson 12 50  |r|= 1.35  e= [0.04361127 0.18133051 0.18918916 0.20872332 0.22260291 0.22275751
 0.23376309 0.23377156 0.23916018 0.29704532]  max|de|= 0.0591  lindep= 0.113
Old state -> New state
    8     ->     1 
    1     ->     2 
    2     ->     3 
    2     ->     4 
    3     ->     5 
    4     ->     6 
    5     ->     7 
    6     ->     8 
    7     ->     9 
root 7 converged  |r|= 5.16e-06  e= 0.2227575144573091  max|de|= -4.65e-10
davidson 13 60  |r|= 1.35  e= [0.03953867 0.15134539 0.18133037 0.18918893 0.1901041  0.2087242
 0.22260305 0.22275751 0.23376537 0.2337714 ]  max|de|= -0.0878  lindep= 0.0808
Old state -> New state
    0     ->     1 
    5     ->     4 
    6     ->     5 
    7     ->     6 
    8     ->     7 
    9     ->     8 
    8     ->     9 
davidson 14 69  |r|= 1.32  e= [0.01478763 0.03723758 0.18133074 0.18918911 0.20872348 0.22260289
 0.22275752 0.23376428 0.23377135 0.23457052]  max|de|= -0.0248  lindep= 0.0419
Old state -> New state
    2     ->     1 
    3     ->     2 
    4     ->     3 
davidson 15 78  |r|=  1.1  e= [0.06915877 0.18133087 0.18918912 0.19035844 0.20872326 0.22260288
 0.22275751 0.23376298 0.23377132 0.23914555]  max|de|= 0.0544  lindep= 0.122
root 1 converged  |r|= 2.38e-05  e= 0.18133087391671898  max|de|= 8.88e-16
root 4 converged  |r|= 8.23e-06  e= 0.20872326095347865  max|de|= -1.42e-15
root 5 converged  |r|= 1.98e-05  e= 0.22260287916573285  max|de|= 3.33e-16
davidson 16 10  |r|=  1.1  e= [0.06915877 0.18133087 0.18918912 0.19035844 0.20872326 0.22260288
 0.22275751 0.23376298 0.23377132 0.23914555]  max|de|= -4.88e-15  lindep= 0.39
Old state -> New state
    0     ->     1 
    4     ->     2 
    9     ->     3 
    1     ->     4 
    2     ->     5 
    4     ->     6 
    5     ->     7 
    6     ->     8 
    7     ->     9 
davidson 17 16  |r|= 1.53  e= [0.03108541 0.09965151 0.1434824  0.15647224 0.1813309  0.18918913
 0.20872324 0.22260293 0.22275751 0.23376264]  max|de|= -0.0827  lindep= 0.266
Old state -> New state
    1     ->     2 
    4     ->     3 
root 5 converged  |r|= 4.17e-06  e= 0.18918912843892782  max|de|= -3.71e-10
davidson 18 25  |r|= 1.36  e= [0.03265013 0.03803884 0.07739057 0.15869584 0.18133097 0.18918913
 0.20872333 0.22260289 0.22275751 0.23376341]  max|de|= -0.0616  lindep= 0.259
Old state -> New state
    0     ->     1 
    4     ->     3 
    5     ->     4 
    6     ->     5 
    7     ->     6 
    8     ->     7 
    7     ->     8 
davidson 19 33  |r|= 1.06  e= [0.0166942  0.07474878 0.14599245 0.18133083 0.18918913 0.20872325
 0.22260293 0.22275751 0.22618864 0.23376279]  max|de|= 0.0686  lindep= 0.102
Old state -> New state
    0     ->     1 
    3     ->     2 
    4     ->     3 
    5     ->     4 
    6     ->     5 
    7     ->     6 
    9     ->     7 
    8     ->     9 
davidson 20 43  |r|= 1.23  e= [0.02060433 0.04625497 0.18133085 0.18918913 0.20872329 0.2226029
 0.22275751 0.23376288 0.23377133 0.23913361]  max|de|= 0.0296  lindep= 0.0631
Old state -> New state
    1     ->     0 
    2     ->     1 
    3     ->     2 
    4     ->     3 
    5     ->     4 
    6     ->     5 
    7     ->     6 
    8     ->     7 
    9     ->     8 
root 5 converged  |r|= 1.76e-06  e= 0.2227575145834934  max|de|= -6.09e-11
davidson 21 52  |r|= 1.29  e= [0.13114922 0.18133085 0.18918913 0.2087233  0.2226029  0.22275751
 0.23376252 0.2337714  0.23471792 0.23913912]  max|de|= 0.0849  lindep= 0.163
Old state -> New state
    1     ->     2 
    2     ->     3 
    3     ->     4 
    4     ->     5 
    5     ->     6 
    6     ->     7 
    7     ->     8 
davidson 22 61  |r|= 1.11  e= [0.04208158 0.18133086 0.18290761 0.18918914 0.2087233  0.2226029
 0.22275751 0.23376288 0.23377132 0.23914799]  max|de|= -0.0891  lindep= 0.0983
Old state -> New state
    0     ->     1 
    1     ->     2 
    4     ->     5 
    5     ->     6 
    6     ->     7 
    7     ->     8 
    8     ->     9 
root 5 converged  |r|= 4.89e-07  e= 0.20872330196935351  max|de|= -3.8e-12
root 6 converged  |r|= 7.06e-07  e= 0.22260289586211615  max|de|= 2.45e-10
davidson 23 69  |r|= 1.05  e= [0.0040914  0.14397201 0.18133083 0.18918913 0.19735625 0.2087233
 0.2226029  0.22275751 0.23376288 0.23377132]  max|de|= 0.102  lindep= 0.0767
Old state -> New state
    2     ->     1 
    5     ->     4 
    6     ->     5 
    7     ->     6 
    8     ->     7 
    9     ->     8 
    4     ->     9 
davidson 24 76  |r|= 1.03  e= [0.10219528 0.17523821 0.18133082 0.18918913 0.2087233  0.2226029
 0.22275751 0.23376284 0.23377132 0.23914718]  max|de|= 0.0981  lindep= 0.107
Old state -> New state
    0     ->     1 
    3     ->     4 
    4     ->     5 
    5     ->     6 
    6     ->     7 
    7     ->     8 
    8     ->     9 
root 5 converged  |r|= 3.2e-07  e= 0.2087232980499275  max|de|= 9.04e-10
root 9 converged  |r|= 3.09e-06  e= 0.2337713242470459  max|de|= -7.42e-10
davidson 25 82  |r|= 1.18  e= [0.06405339 0.08796861 0.18133081 0.18918913 0.19708492 0.2087233
 0.2226029  0.22275751 0.23376285 0.23377132]  max|de|= -0.0381  lindep= 0.0818
root 2 converged  |r|= 8.32e-07  e= 0.18133081324042408  max|de|= -1.58e-15
root 3 converged  |r|= 5.34e-07  e= 0.18918913257341072  max|de|= -2.01e-14
root 8 converged  |r|= 6.65e-06  e= 0.23376285034067584  max|de|= 3.28e-15
davidson 26 10  |r|= 1.18  e= [0.06405339 0.08796861 0.18133081 0.18918913 0.19708492 0.2087233
 0.2226029  0.22275751 0.23376285 0.23377132]  max|de|= -1.78e-13  lindep= 0.267
Old state -> New state
    1     ->     0 
    0     ->     1 
    1     ->     2 
    2     ->     3 
    3     ->     4 
    5     ->     6 
    6     ->     7 
    7     ->     8 
    8     ->     9 
davidson 27 13  |r|= 1.43  e= [0.0223775  0.05804925 0.13316761 0.18133082 0.18918913 0.19048736
 0.2087233  0.2226029  0.22275751 0.23376286]  max|de|= -0.0656  lindep= 0.139
Old state -> New state
    2     ->     0 
    3     ->     1 
    4     ->     2 
    6     ->     3 
    7     ->     4 
    8     ->     5 
    1     ->     6 
    9     ->     7 
    2     ->     8 
    2     ->     9 
root 2 converged  |r|= 5.44e-08  e= 0.18918913102070126  max|de|= -2.05e-10
davidson 28 18  |r|= 1.19  e= [0.14064272 0.18133081 0.18918913 0.2087233  0.2226029  0.22275751
 0.22800351 0.23376285 0.23377133 0.3478986 ]  max|de|= 0.215  lindep= 0.34
Old state -> New state
    0     ->     1 
    6     ->     2 
    1     ->     3 
    2     ->     4 
    3     ->     5 
    4     ->     6 
    5     ->     7 
    7     ->     8 
    8     ->     9 
root 3 converged  |r|= 1.27e-07  e= 0.18133081189940448  max|de|= -3.96e-10
davidson 29 23  |r|= 1.21  e= [0.03432127 0.07031866 0.13611689 0.18133081 0.18918913 0.2087233
 0.2226029  0.22275751 0.23376284 0.23377132]  max|de|= -0.106  lindep= 0.238
Old state -> New state
    0     ->     1 
    3     ->     2 
    4     ->     3 
    5     ->     4 
    6     ->     5 
    7     ->     6 
    8     ->     7 
    9     ->     8 
    8     ->     9 
root 5 converged  |r|= 7.82e-08  e= 0.2226028961567225  max|de|= 1.3e-10
root 8 converged  |r|= 3.88e-07  e= 0.23377132360527855  max|de|= 1.54e-10
davidson 30 28  |r|= 1.25  e= [0.04455453 0.08880137 0.18133081 0.18918913 0.2087233  0.2226029
 0.22275751 0.23376299 0.23377132 0.23837177]  max|de|= 0.0545  lindep= 0.0954
Old state -> New state
    2     ->     1 
    3     ->     2 
    1     ->     3 
    0     ->     9 
root 1 converged  |r|= 7.1e-08  e= 0.1813308125971846  max|de|= -6.64e-10
davidson 31 32  |r|= 1.19  e= [0.01095326 0.18133081 0.18918913 0.20579454 0.2087233  0.2226029
 0.22275751 0.23376285 0.23377132 0.29956247]  max|de|= 0.255  lindep= 0.114
Old state -> New state
    4     ->     3 
    5     ->     4 
    6     ->     5 
    7     ->     6 
    8     ->     7 
    0     ->     8 
root 3 converged  |r|= 6.67e-08  e= 0.20872329788655355  max|de|= 4.73e-10
davidson 32 36  |r|= 1.13  e= [0.00511734 0.18133081 0.18918913 0.2087233  0.2226029  0.22275751
 0.23376285 0.23377132 0.26665749 0.29451922]  max|de|= 0.256  lindep= 0.0974
Old state -> New state
    8     ->     1 
    1     ->     2 
    2     ->     3 
    3     ->     4 
    4     ->     5 
    5     ->     6 
    6     ->     7 
    7     ->     8 
    8     ->     9 
davidson 33 40  |r|= 1.18  e= [0.00372968 0.09588446 0.18133081 0.18918913 0.2087233  0.2226029
 0.22275751 0.23376285 0.23377132 0.28031009]  max|de|= -0.171  lindep= 0.0289
root 7 converged  |r|= 1.03e-06  e= 0.23376285485212542  max|de|= 7.77e-10
davidson 34 44  |r|=  1.2  e= [0.00530062 0.15985409 0.18133081 0.18918913 0.2087233  0.2226029
 0.22275751 0.23376285 0.23377132 0.25057429]  max|de|= 0.064  lindep= 0.0374
Old state -> New state
    2     ->     1 
    3     ->     2 
    4     ->     3 
    5     ->     4 
    6     ->     5 
    7     ->     6 
    8     ->     7 
    9     ->     8 
    1     ->     9 
davidson 35 47  |r|= 1.19  e= [0.00523157 0.18133081 0.18918913 0.2087233  0.2226029  0.22275751
 0.23376285 0.23377132 0.25526918 0.27261485]  max|de|= 0.113  lindep= 0.0266
Old state -> New state
    8     ->     9 
davidson 36 50  |r|= 1.08  e= [0.0461449  0.18133081 0.18918913 0.2087233  0.2226029  0.22275751
 0.23376287 0.23377132 0.23476704 0.26125754]  max|de|= 0.0409  lindep= 0.109
Old state -> New state
    1     ->     0 
    2     ->     1 
    3     ->     2 
    4     ->     3 
    5     ->     4 
    6     ->     5 
    7     ->     6 
    8     ->     7 
    8     ->     9 
davidson 37 54  |r|= 0.396  e= [0.18133081 0.18918913 0.2087233  0.2226029  0.22275751 0.23376285
 0.23377132 0.24572223 0.25187935 0.29900355]  max|de|= 0.0642  lindep= 0.215
Old state -> New state
    0     ->     1 
    0     ->     2 
    1     ->     3 
    2     ->     4 
    3     ->     5 
    4     ->     6 
    5     ->     7 
    6     ->     8 
    7     ->     9 
davidson 38 57  |r|= 1.16  e= [0.15764055 0.1813308  0.18546293 0.18918913 0.2087233  0.2226029
 0.22275751 0.23376285 0.23377132 0.23920208]  max|de|= -0.0237  lindep= 0.15
Old state -> New state
    9     ->     0 
    1     ->     2 
davidson 39 61  |r|=  1.2  e= [0.13854516 0.18014429 0.18133083 0.18918913 0.2087233  0.2226029
 0.22275751 0.23376285 0.23377132 0.23826313]  max|de|= -0.101  lindep= 0.034
Old state -> New state
    2     ->     1 
root 7 converged  |r|= 3.57e-07  e= 0.23376285216173226  max|de|= -9.49e-11
davidson 40 65  |r|= 1.12  e= [0.05255112 0.18133081 0.18730759 0.18918913 0.2087233  0.2226029
 0.22275751 0.23376285 0.23377132 0.23968959]  max|de|= -0.086  lindep= 0.0844
Old state -> New state
    3     ->     2 
    4     ->     3 
    9     ->     4 
root 1 converged  |r|= 3.06e-08  e= 0.18133081201327741  max|de|= 1.94e-10
davidson 41 68  |r|= 1.04  e= [0.03234016 0.18133081 0.18918913 0.2087233  0.21175767 0.2226029
 0.22275751 0.23376285 0.23377132 0.238934  ]  max|de|= -0.0279  lindep= 0.0512
Old state -> New state
    3     ->     1 
    1     ->     2 
    1     ->     3 
    2     ->     4 
    3     ->     5 
    5     ->     6 
    6     ->     7 
    7     ->     8 
    8     ->     9 
davidson 42 71  |r|=  1.2  e= [0.01256499 0.08348699 0.16703708 0.18133081 0.18918913 0.2087233
 0.2226029  0.22275751 0.23376285 0.23377132]  max|de|= -0.125  lindep= 0.0709
Old state -> New state
    3     ->     1 
    4     ->     2 
    5     ->     3 
    6     ->     4 
    7     ->     5 
    8     ->     6 
    9     ->     7 
    2     ->     8 
    1     ->     9 
davidson 43 74  |r|= 1.03  e= [0.11670097 0.18133081 0.18918913 0.2087233  0.2226029  0.22275751
 0.23376285 0.23377132 0.23966958 0.27782411]  max|de|= 0.194  lindep= 0.113
Old state -> New state
    8     ->     0 
    0     ->     1 
    1     ->     2 
    2     ->     3 
    3     ->     4 
    4     ->     5 
    5     ->     6 
    8     ->     7 
    6     ->     8 
    7     ->     9 
davidson 44 77  |r|=  1.2  e= [0.00717183 0.11624195 0.18133081 0.18918913 0.2087233  0.2226029
 0.22275751 0.22531433 0.23376285 0.23377132]  max|de|= -0.232  lindep= 0.124
davidson 45 10  |r|=  1.2  e= [0.00717183 0.11624195 0.18133081 0.18918913 0.2087233  0.2226029
 0.22275751 0.22531433 0.23376285 0.23377132]  max|de|= 6.64e-13  lindep= 0.247
Old state -> New state
    2     ->     1 
    3     ->     2 
    4     ->     3 
    5     ->     4 
    6     ->     5 
    8     ->     6 
    9     ->     7 
    1     ->     8 
    7     ->     9 
davidson 46 13  |r|= 0.992  e= [0.03960779 0.18133081 0.18918913 0.2087233  0.2226029  0.22275751
 0.23376285 0.23377132 0.26903918 0.29617096]  max|de|= 0.153  lindep= 0.295
Old state -> New state
    9     ->     8 
    8     ->     9 
davidson 47 16  |r|= 0.876  e= [0.04160251 0.18133081 0.18918913 0.2087233  0.2226029  0.22275751
 0.23376285 0.23377132 0.25198526 0.3106683 ]  max|de|= -0.0442  lindep= 0.058
Old state -> New state
    0     ->     1 
    0     ->     2 
    1     ->     3 
    2     ->     4 
    3     ->     5 
    4     ->     6 
    5     ->     7 
    6     ->     8 
    7     ->     9 
davidson 48 19  |r|= 1.48  e= [0.01659824 0.0846926  0.1154528  0.18133081 0.18918913 0.2087233
 0.2226029  0.22275751 0.23376285 0.23377132]  max|de|= 0.0739  lindep= 0.203
Old state -> New state
    3     ->     1 
    4     ->     2 
    5     ->     3 
    6     ->     4 
    7     ->     5 
    8     ->     6 
    9     ->     7 
    1     ->     8 
    1     ->     9 
davidson 49 22  |r|= 1.21  e= [0.11628282 0.18133081 0.18918913 0.2087233  0.2226029  0.22275751
 0.23376285 0.23377132 0.25423138 0.27353655]  max|de|= 0.189  lindep= 0.32
davidson 50 25  |r|= 1.07  e= [0.10664454 0.18133081 0.18918913 0.2087233  0.2226029  0.22275751
 0.23376285 0.23377132 0.23745792 0.28209801]  max|de|= -0.0168  lindep= 0.138
Old state -> New state
    9     ->     8 
davidson 51 28  |r|= 0.925  e= [0.09143743 0.18133081 0.18918913 0.2087233  0.2226029  0.22275751
 0.23376285 0.23377132 0.2880473  0.33247328]  max|de|= 0.0504  lindep= 0.0916
Old state -> New state
    1     ->     0 
    2     ->     1 
    3     ->     2 
    4     ->     3 
    5     ->     4 
    6     ->     5 
    7     ->     6 
    8     ->     7 
    9     ->     8 
    8     ->     9 
davidson 52 31  |r|= 0.922  e= [0.18133081 0.18918913 0.2087233  0.2226029  0.22275751 0.23376285
 0.23377132 0.23738333 0.26807195 0.2878663 ]  max|de|= -0.0644  lindep= 0.224
Old state -> New state
    7     ->     0 
    0     ->     1 
    1     ->     2 
    8     ->     3 
    2     ->     4 
    3     ->     5 
    4     ->     6 
    5     ->     7 
    6     ->     8 
    7     ->     9 
davidson 53 34  |r|= 1.17  e= [0.05844638 0.18133081 0.18918913 0.19625193 0.2087233  0.2226029
 0.22275751 0.23376285 0.23377132 0.23945951]  max|de|= -0.179  lindep= 0.131
Old state -> New state
    4     ->     3 
    5     ->     4 
    6     ->     5 
    9     ->     6 
root 7 converged  |r|= 5.61e-07  e= 0.2337628525006723  max|de|= 2.14e-10
davidson 54 37  |r|= 1.05  e= [0.06134623 0.18133081 0.18918913 0.2087233  0.2226029  0.22275751
 0.22578862 0.23376285 0.23377132 0.24370229]  max|de|= -0.0137  lindep= 0.112
Old state -> New state
    9     ->     6 
davidson 55 40  |r|= 0.976  e= [0.01713561 0.18133081 0.18918913 0.2087233  0.2226029  0.22275751
 0.22713156 0.23376285 0.23377132 0.23901657]  max|de|= -0.0442  lindep= 0.0928
Old state -> New state
    7     ->     6 
    8     ->     7 
    9     ->     8 
davidson 56 43  |r|= 0.879  e= [0.00106378 0.18133081 0.18918913 0.2087233  0.2226029  0.22275751
 0.23376285 0.23377132 0.23941666 0.26165799]  max|de|= 0.0226  lindep= 0.0595
Old state -> New state
    8     ->     1 
    1     ->     2 
    2     ->     3 
    3     ->     4 
    4     ->     5 
    5     ->     6 
    6     ->     7 
    7     ->     8 
    8     ->     9 
root 4 converged  |r|= 5.08e-08  e= 0.2087232982906087  max|de|= -1.84e-10
davidson 57 46  |r|= 1.28  e= [0.00108007 0.07476688 0.18133081 0.18918913 0.2087233  0.2226029
 0.22275751 0.23376285 0.23377132 0.23896652]  max|de|= -0.165  lindep= 0.0227
Old state -> New state
    2     ->     1 
    3     ->     2 
    4     ->     3 
    5     ->     4 
    6     ->     5 
    7     ->     6 
    8     ->     7 
    9     ->     8 
    1     ->     9 
davidson 58 49  |r|= 1.03  e= [0.13099616 0.18133081 0.18918913 0.2087233  0.2226029  0.22275751
 0.23376285 0.23377132 0.23894384 0.28095533]  max|de|= 0.206  lindep= 0.123
davidson 59 52  |r|= 0.862  e= [0.1101697  0.18133081 0.18918913 0.2087233  0.2226029  0.22275751
 0.23376285 0.23377132 0.23896618 0.26950328]  max|de|= -0.0208  lindep= 0.0614
Old state -> New state
    0     ->     1 
    1     ->     2 
    2     ->     3 
    3     ->     4 
    4     ->     5 
    5     ->     6 
    3     ->     7 
    6     ->     8 
    7     ->     9 
davidson 60 55  |r|= 1.11  e= [0.10812338 0.13759864 0.18133081 0.18918913 0.2087233  0.2226029
 0.22275751 0.23031592 0.23376285 0.23377132]  max|de|= 0.0274  lindep= 0.0313
Old state -> New state
    0     ->     1 
    2     ->     3 
    3     ->     4 
    4     ->     5 
    5     ->     6 
    6     ->     7 
davidson 61 58  |r|= 1.14  e= [0.05095598 0.07710099 0.16915623 0.18133081 0.18918913 0.2087233
 0.2226029  0.22275751 0.23376285 0.23377132]  max|de|= -0.0572  lindep= 0.0957
Old state -> New state
    0     ->     1 
    3     ->     2 
    4     ->     3 
    5     ->     4 
    6     ->     5 
    7     ->     6 
    8     ->     7 
    9     ->     8 
    2     ->     9 
davidson 62 61  |r|= 1.27  e= [0.01601705 0.10931129 0.18133081 0.18918913 0.2087233  0.2226029
 0.22275751 0.23376285 0.23377132 0.23910881]  max|de|= 0.07  lindep= 0.0935
Old state -> New state
    2     ->     1 
    3     ->     2 
    4     ->     3 
    5     ->     4 
    6     ->     5 
    7     ->     6 
    8     ->     7 
    9     ->     8 
    1     ->     9 
davidson 63 64  |r|= 1.27  e= [0.16187387 0.18133081 0.18918913 0.2087233  0.2226029  0.22275751
 0.23376285 0.23377132 0.23912078 0.2773812 ]  max|de|= 0.168  lindep= 0.141
Old state -> New state
    8     ->     9 
davidson 64 67  |r|= 1.23  e= [0.11851756 0.18133081 0.18918913 0.2087233  0.2226029  0.22275751
 0.23376285 0.23377132 0.23869286 0.23899462]  max|de|= -0.0434  lindep= 0.0921
Old state -> New state
    9     ->     8 
    8     ->     9 
davidson 65 70  |r|=  1.2  e= [0.07308405 0.18133081 0.18918913 0.2087233  0.2226029  0.22275751
 0.23376285 0.23377132 0.23916621 0.24443832]  max|de|= -0.0454  lindep= 0.0963
Old state -> New state
    1     ->     0 
    2     ->     1 
    1     ->     2 
    0     ->     9 
root 6 converged  |r|= 1.19e-06  e= 0.2337628520713797  max|de|= 1.37e-10
davidson 66 75  |r|= 0.885  e= [0.18133082 0.18918913 0.19167893 0.2087233  0.2226029  0.22275751
 0.23376285 0.23377132 0.23915125 0.27399894]  max|de|= 0.201  lindep= 0.124
Old state -> New state
    2     ->     0 
    2     ->     1 
    0     ->     2 
    1     ->     3 
    3     ->     4 
    4     ->     5 
    5     ->     6 
    6     ->     7 
    7     ->     8 
    8     ->     9 
root 5 converged  |r|= 1.08e-05  e= 0.22260289611314907  max|de|= -8.25e-10
davidson 67 81  |r|= 1.34  e= [0.08176335 0.10212385 0.1813308  0.18918913 0.20872324 0.2226029
 0.22275751 0.23376286 0.23377132 0.23914941]  max|de|= -0.11  lindep= 0.0934
root 7 converged  |r|= 6.37e-06  e= 0.2337628603259431  max|de|= -8.66e-10
davidson 68 10  |r|= 1.35  e= [0.08176355 0.10212458 0.18133082 0.18918913 0.20872324 0.22260289
 0.22275751 0.23376286 0.23377132 0.23914939]  max|de|= 7.26e-07  lindep= 0.246
Old state -> New state
    1     ->     2 
    0     ->     3 
    2     ->     4 
    2     ->     5 
    3     ->     6 
    4     ->     7 
    4     ->     8 
    5     ->     9 
davidson 69 17  |r|= 1.36  e= [0.00814546 0.07398191 0.09536039 0.14395378 0.18133043 0.18214841
 0.18918913 0.20872368 0.21131142 0.22260286]  max|de|= -0.0736  lindep= 0.24
Old state -> New state
    1     ->     0 
    4     ->     1 
    5     ->     2 
    6     ->     3 
    7     ->     4 
    9     ->     5 
    8     ->     6 
    8     ->     7 
    1     ->     8 
    3     ->     9 
davidson 70 27  |r|= 1.07  e= [0.11934296 0.1813308  0.18627495 0.18918914 0.20872338 0.22260291
 0.22275751 0.23376285 0.23377132 0.23914336]  max|de|= 0.16  lindep= 0.318
Old state -> New state
    3     ->     2 
    9     ->     7 
    7     ->     8 
    8     ->     9 
root 6 converged  |r|= 3.8e-07  e= 0.2227575145785769  max|de|= 3.2e-11
root 9 converged  |r|= 1.57e-07  e= 0.23377132360385877  max|de|= 1.52e-11
davidson 71 35  |r|=  1.1  e= [0.09961314 0.18133082 0.18918911 0.19088479 0.20872335 0.22260291
 0.22275751 0.22692954 0.23376286 0.23377132]  max|de|= -0.0197  lindep= 0.146
Old state -> New state
    1     ->     2 
    2     ->     3 
    8     ->     7 
    9     ->     8 
    3     ->     9 
davidson 72 43  |r|= 1.27  e= [0.13286765 0.1666109  0.1813308  0.18918913 0.20872331 0.2226029
 0.22275751 0.23376285 0.23377132 0.23914302]  max|de|= 0.0483  lindep= 0.233
Old state -> New state
    9     ->     1 
root 3 converged  |r|= 7.8e-08  e= 0.1891891310651702  max|de|= -2.86e-10
davidson 73 49  |r|= 1.14  e= [0.06899962 0.15914675 0.18133081 0.18918913 0.20872329 0.2226029
 0.22275751 0.23376285 0.23377132 0.23914627]  max|de|= -0.08  lindep= 0.157
Old state -> New state
    0     ->     1 
    5     ->     6 
    6     ->     7 
    7     ->     8 
    8     ->     9 
root 2 converged  |r|= 1.01e-07  e= 0.18133081322831995  max|de|= -8.67e-11
root 8 converged  |r|= 5.52e-07  e= 0.23376285375241143  max|de|= 6.12e-10
davidson 74 52  |r|= 1.16  e= [0.00775523 0.06286582 0.18133081 0.18918913 0.20872329 0.22078805
 0.22260288 0.22275751 0.23376285 0.23377132]  max|de|= -0.0612  lindep= 0.121
Old state -> New state
    2     ->     0 
    3     ->     1 
    4     ->     2 
    6     ->     3 
    7     ->     4 
    8     ->     5 
    9     ->     6 
    0     ->     7 
    1     ->     8 
    1     ->     9 
davidson 75 56  |r|= 0.363  e= [0.18133081 0.18918913 0.2087233  0.2226029  0.22275751 0.23376285
 0.23377132 0.23914793 0.31655997 0.3471216 ]  max|de|= 0.284  lindep= 0.558
Old state -> New state
    7     ->     5 
    5     ->     6 
    6     ->     7 
    7     ->     8 
    8     ->     9 
davidson 76 59  |r|= 0.498  e= [0.18133081 0.18918913 0.20872329 0.2226029  0.22275751 0.22951939
 0.23376285 0.23377132 0.23914887 0.28192749]  max|de|= -0.0346  lindep= 0.201
Old state -> New state
    5     ->     0 
    5     ->     1 
    0     ->     2 
    1     ->     3 
    2     ->     4 
    3     ->     5 
    4     ->     6 
    6     ->     7 
    7     ->     8 
    8     ->     9 
davidson 77 64  |r|= 1.49  e= [0.02284053 0.08180962 0.18133081 0.18918913 0.2087233  0.2226029
 0.22275751 0.23376285 0.23377132 0.23914753]  max|de|= -0.207  lindep= 0.123
Old state -> New state
    2     ->     1 
    3     ->     2 
    4     ->     3 
    5     ->     4 
    6     ->     5 
    7     ->     6 
    8     ->     7 
    9     ->     8 
    1     ->     9 
root 1 converged  |r|= 2.23e-08  e= 0.1813308123426626  max|de|= -3.44e-11
root 3 converged  |r|= 1.02e-07  e= 0.20872329783866386  max|de|= -6.86e-11
root 4 converged  |r|= 1.13e-07  e= 0.22260289628674312  max|de|= -8.04e-11
root 6 converged  |r|= 9.71e-08  e= 0.23376285276879546  max|de|= -3.52e-11
davidson 78 67  |r|= 1.37  e= [0.06556109 0.18133081 0.18918913 0.2087233  0.2226029  0.22275751
 0.23376285 0.23377132 0.23914761 0.28000956]  max|de|= 0.198  lindep= 0.127
Old state -> New state
    0     ->     1 
    1     ->     2 
    1     ->     3 
    2     ->     4 
    3     ->     5 
    4     ->     6 
    5     ->     7 
    6     ->     8 
    7     ->     9 
davidson 79 70  |r|=  1.5  e= [0.05580552 0.07092319 0.1331514  0.18133081 0.18918913 0.2087233
 0.2226029  0.22275751 0.23376285 0.23377132]  max|de|= -0.0482  lindep= 0.117
Old state -> New state
    3     ->     1 
    4     ->     2 
    5     ->     3 
    6     ->     4 
    7     ->     5 
    8     ->     6 
    9     ->     7 
    1     ->     8 
    5     ->     9 
davidson 80 73  |r|=  1.3  e= [0.13434693 0.18133081 0.18918913 0.2087233  0.2226029  0.22275751
 0.23376285 0.23377132 0.23914753 0.26920401]  max|de|= 0.168  lindep= 0.102
Old state -> New state
    2     ->     3 
    3     ->     4 
    4     ->     5 
    5     ->     6 
    6     ->     7 
    7     ->     8 
    8     ->     9 
davidson 81 76  |r|=  1.3  e= [0.05351273 0.18133081 0.18821451 0.18918913 0.2087233  0.2226029
 0.22275751 0.23376285 0.23377132 0.23914754]  max|de|= -0.0808  lindep= 0.0861
Old state -> New state
    1     ->     2 
    2     ->     4 
    4     ->     5 
    5     ->     6 
    6     ->     7 
    7     ->     8 
    8     ->     9 
davidson 82 79  |r|= 1.26  e= [0.04803616 0.12727553 0.18133081 0.18918913 0.19327387 0.2087233
 0.2226029  0.22275751 0.23376285 0.23377132]  max|de|= -0.0541  lindep= 0.0445
root 3 converged  |r|= 4.12e-08  e= 0.18918913131401174  max|de|= 8.76e-12
davidson 83 10  |r|= 1.26  e= [0.04803616 0.12727553 0.18133081 0.18918913 0.19327387 0.2087233
 0.2226029  0.22275751 0.23376285 0.23377132]  max|de|= -1.06e-10  lindep= 0.307
Old state -> New state
    5     ->     1 
    5     ->     4 
    6     ->     5 
    7     ->     6 
    8     ->     7 
    9     ->     8 
    1     ->     9 
davidson 84 13  |r|= 1.15  e= [0.05054238 0.114945   0.18133081 0.18918913 0.2087233  0.2226029
 0.22275751 0.23376285 0.23377132 0.29259421]  max|de|= 0.165  lindep= 0.132
Old state -> New state
    0     ->     1 
davidson 85 16  |r|= 1.28  e= [0.03866963 0.11178101 0.18133081 0.18918913 0.2087233  0.2226029
 0.22275751 0.23376285 0.23377132 0.29289282]  max|de|= 0.0612  lindep= 0.158
Old state -> New state
    0     ->     1 
    4     ->     2 
    2     ->     3 
    3     ->     4 
    4     ->     5 
    5     ->     6 
    6     ->     7 
    7     ->     8 
    8     ->     9 
davidson 86 19  |r|= 1.23  e= [0.01639901 0.04052453 0.11290266 0.18133081 0.18918913 0.2087233
 0.2226029  0.22275751 0.23376285 0.23377132]  max|de|= -0.0958  lindep= 0.269
Old state -> New state
    0     ->     1 
    3     ->     2 
    4     ->     3 
    5     ->     4 
davidson 87 22  |r|= 1.22  e= [0.01882899 0.14590879 0.18133081 0.18918913 0.20210502 0.2087233
 0.2226029  0.22275751 0.23376285 0.23377132]  max|de|= 0.13  lindep= 0.0267
Old state -> New state
    2     ->     1 
    3     ->     2 
    5     ->     3 
    5     ->     4 
    6     ->     5 
    7     ->     6 
    8     ->     7 
    9     ->     8 
    4     ->     9 
davidson 88 25  |r|= 1.02  e= [0.0180465  0.18133081 0.18918913 0.20356431 0.2087233  0.2226029
 0.22275751 0.23376285 0.23377132 0.27307885]  max|de|= 0.071  lindep= 0.0304
Old state -> New state
    4     ->     3 
davidson 89 28  |r|= 1.12  e= [0.01905996 0.18133081 0.18918913 0.20298616 0.2087233  0.2226029
 0.22275751 0.23376285 0.23377132 0.27903538]  max|de|= 0.00596  lindep= 0.0964
Old state -> New state
    4     ->     3 
    5     ->     4 
    6     ->     5 
    7     ->     6 
    8     ->     7 
    4     ->     8 
davidson 90 31  |r|= 1.46  e= [0.09226965 0.18133081 0.18918913 0.2087233  0.2226029  0.22275751
 0.23376285 0.23377132 0.23822296 0.27241056]  max|de|= 0.0732  lindep= 0.189
Old state -> New state
    8     ->     6 
    6     ->     7 
    7     ->     8 
    8     ->     9 
root 3 converged  |r|= 7.4e-08  e= 0.2087232983211687  max|de|= -3.74e-10
davidson 91 34  |r|=  1.5  e= [0.02538213 0.18133081 0.18918913 0.2087233  0.2226029  0.22275751
 0.23132495 0.23376285 0.23377132 0.25738414]  max|de|= -0.0669  lindep= 0.163
Old state -> New state
    1     ->     0 
    2     ->     1 
    3     ->     2 
    7     ->     6 
    8     ->     7 
    9     ->     8 
davidson 92 37  |r|= 0.381  e= [0.18133081 0.18918913 0.20774291 0.2087233  0.2226029  0.22275751
 0.23376285 0.23377132 0.24710858 0.28946236]  max|de|= 0.0321  lindep= 0.274
Old state -> New state
    2     ->     0 
    0     ->     1 
    1     ->     2 
davidson 93 40  |r|= 1.14  e= [0.15835603 0.18133081 0.18918913 0.2087233  0.2226029  0.22275751
 0.23376285 0.23377132 0.24087826 0.28209365]  max|de|= -0.0494  lindep= 0.0841
Old state -> New state
    1     ->     0 
    2     ->     1 
    3     ->     2 
    4     ->     3 
    5     ->     4 
    6     ->     5 
    7     ->     6 
    8     ->     7 
root 2 converged  |r|= 7.29e-08  e= 0.20872329827178077  max|de|= 9.48e-11
davidson 94 43  |r|= 0.623  e= [0.18133081 0.18918913 0.2087233  0.2226029  0.22275751 0.23376285
 0.23377132 0.23790752 0.25262459 0.27790797]  max|de|= 0.0117  lindep= 0.26
Old state -> New state
    8     ->     0 
    0     ->     1 
    1     ->     2 
    7     ->     3 
    2     ->     4 
    3     ->     5 
    4     ->     6 
    5     ->     7 
    6     ->     8 
    7     ->     9 
davidson 95 46  |r|= 1.14  e= [0.01450559 0.18133081 0.18918913 0.19842072 0.2087233  0.2226029
 0.22275751 0.23376285 0.23377132 0.23719823]  max|de|= -0.238  lindep= 0.15
Old state -> New state
    1     ->     2 
    2     ->     3 
davidson 96 49  |r|=  1.2  e= [0.00751154 0.16479182 0.18133081 0.18918913 0.2087233  0.2226029
 0.22275751 0.23376285 0.23377132 0.23938206]  max|de|= -0.0165  lindep= 0.0158
Old state -> New state
    2     ->     0 
    3     ->     1 
    4     ->     2 
    4     ->     3 
    5     ->     4 
    6     ->     5 
    7     ->     6 
    8     ->     7 
    9     ->     8 
    0     ->     9 
root 4 converged  |r|= 2.33e-07  e= 0.22260289635911265  max|de|= 7.96e-11
davidson 97 52  |r|= 0.861  e= [0.18133081 0.18918913 0.20280995 0.20872329 0.2226029  0.22275751
 0.23376285 0.23377132 0.2395419  0.26387683]  max|de|= 0.256  lindep= 0.228
Old state -> New state
    9     ->     0 
    2     ->     1 
    0     ->     2 
    1     ->     3 
    3     ->     4 
    4     ->     5 
    5     ->     6 
    6     ->     7 
    7     ->     8 
    8     ->     9 
davidson 98 55  |r|= 1.32  e= [0.0148755  0.1224981  0.18133081 0.18918913 0.2087233  0.2226029
 0.22275751 0.23376285 0.23377132 0.23931032]  max|de|= -0.249  lindep= 0.153
Old state -> New state
    2     ->     1 
    3     ->     2 
    4     ->     3 
    5     ->     4 
    6     ->     5 
    7     ->     6 
    8     ->     7 
    9     ->     8 
    1     ->     9 
root 3 converged  |r|= 5.98e-08  e= 0.2087232981556823  max|de|= 2.37e-10
davidson 99 58  |r|= 1.47  e= [0.06665953 0.18133081 0.18918913 0.2087233  0.2226029  0.22275751
 0.23376285 0.23377132 0.23909937 0.27728616]  max|de|= 0.155  lindep= 0.0937
    CPU time for TDDFT   1553.77 sec, wall time     55.79 sec
TD-SCF states [0, 8, 9] not converged.
Excited State energies (eV)
[1.81389811 4.93426273 5.14809848 5.67965024 6.05733334 6.06154072
 6.36101122 6.36124173 6.50622527 7.5453407 ]
