 
:: initializing oneAPI environment ...
   slurm_script: BASH_VERSION = 4.2.46(1)-release
   args: Using "$@" for setvars.sh arguments: --force
:: advisor -- latest
:: ccl -- latest
:: clck -- latest
:: compiler -- latest
:: dal -- latest
:: debugger -- latest
:: dev-utilities -- latest
:: dnnl -- latest
:: dpcpp-ct -- latest
:: dpl -- latest
:: inspector -- latest
:: intelpython -- latest
:: ipp -- latest
:: ippcp -- latest
:: ipp -- latest
:: itac -- latest
:: mkl -- latest
:: mpi -- latest
:: tbb -- latest
:: vpl -- latest
:: vtune -- latest
:: oneAPI environment initialized ::
 
SLURM_CPUS_PER_TASK = 28
SLURM_MEM_PER_NODE = 127949
#INFO: **** input file is /home/yangjunjie/work/py-ch3-cl/work/step_-17/main.py ****
import sys
import pyscf
from pyscf import tdscf

def main(xyz_file, basis="631g*", xc="b3lyp", output="ene.out"):
    xyz = None

    with open(xyz_file, "r") as xyz:
        xyz = xyz.readlines()[2:]
        xyz = "".join(xyz)

    mol = pyscf.gto.Mole()
    mol.atom = xyz
    mol.basis = basis
    mol.verbose = 5
    mol.build()

    if xc is not None and xc != "hf":
        mf = pyscf.scf.RKS(mol)
        mf.xc = xc
        mf.kernel()
    else:
        mf = pyscf.scf.RHF(mol)
        mf.kernel()

    ene_mf = mf.e_tot

    tda = pyscf.tdscf.TDA(mf)
    tda.nstates = 10
    tda.kernel()
    ene_tda = tda.e[:5]
    dip_tda = tda.transition_dipole()[:5]

    rpa = pyscf.tdscf.RPA(mf)
    rpa.nstates = 10
    rpa.kernel()
    ene_rpa = rpa.e[:5]
    dip_rpa = rpa.transition_dipole()[:5]

    with open(output, "w") as f:
        f.write(f"RKS energy: {ene_mf: 12.8f}\n")
        f.write("TDA results:\n")
        for i, (ene, dip) in enumerate(zip(ene_tda, dip_tda)):
            f.write(f" {i:2d} {ene: 12.8f} {dip[0]: 12.8f} {dip[1]: 12.8f} {dip[2]: 12.8f}\n")
        
        f.write("\nRPA results:\n")
        for i, (ene, dip) in enumerate(zip(ene_rpa, dip_rpa)):
            f.write(f" {i:2d} {ene: 12.8f} {dip[0]: 12.8f} {dip[1]: 12.8f} {dip[2]: 12.8f}\n")

if __name__ == "__main__":
    xyz = sys.argv[1]
    main(xyz, basis="631g*", xc="b3lyp", output="out.log")
#INFO: ******************** input file end ********************


System: uname_result(system='Linux', node='pauling037', release='3.10.0-327.36.3.el7.x86_64', version='#1 SMP Thu Oct 20 04:56:07 EDT 2016', machine='x86_64')  Threads 28
Python 3.9.7 (default, Oct 27 2021, 01:23:21) 
[GCC 9.3.0]
numpy 1.21.2  scipy 1.6.2
Date: Tue Sep 27 23:10:10 2022
PySCF version 2.0.1
PySCF path  /home/yangjunjie/packages/pyscf/pyscf-main
GIT ORIG_HEAD 14b880cdc4bf7bb64f3989a147c0b04622efc498
GIT HEAD (branch master) 9d5b5bd309d1cc55fbd1a0ec76e26b5b0c7f76af

[ENV] PYSCF_MAX_MEMORY 127949
[ENV] PYSCF_TMPDIR /scratch/global/yangjunjie/
[CONFIG] conf_file /home/yangjunjie/.pyscf_conf.py
[INPUT] verbose = 5
[INPUT] max_memory = 127949 
[INPUT] num. atoms = 16
[INPUT] num. electrons = 68
[INPUT] charge = 0
[INPUT] spin (= nelec alpha-beta = 2S) = 0
[INPUT] symmetry False subgroup None
[INPUT] Mole.unit = angstrom
[INPUT]  1 C      0.000000010000   1.168381910000   1.161472570000 AA    0.000000018897   2.207921818796   2.194865058495 Bohr
[INPUT]  2 C      0.000000000000   1.181769900000   2.524131290000 AA    0.000000000000   2.233221453255   4.769916840545 Bohr
[INPUT]  3 C     -0.000000010000  -0.014256350000   3.228107240000 AA   -0.000000018897  -0.026940597036   6.100238584326 Bohr
[INPUT]  4 C     -0.000000010000  -1.192759450000   2.497584020000 AA   -0.000000018897  -2.253988692987   4.719749770890 Bohr
[INPUT]  5 C      0.000000000000  -1.150979190000   1.139458150000 AA    0.000000000000  -2.175035444174   2.153263833904 Bohr
[INPUT]  6 N      0.000000010000   0.014018240000   0.450882890000 AA    0.000000018897   0.026490634348   0.852045176352 Bohr
[INPUT]  7 C      0.000000000000   0.003726940000  -2.179841270000 AA    0.000000000000   0.007042895883  -4.119302995324 Bohr
[INPUT]  8 H      0.000000020000   2.065648410000   0.557324690000 AA    0.000000037795   3.903509764543   1.053191026558 Bohr
[INPUT]  9 H      0.000000000000   2.153358640000   3.056483490000 AA    0.000000000000   4.069258077566   5.775916700355 Bohr
[INPUT] 10 H     -0.000000020000  -0.024523290000   4.313177180000 AA   -0.000000037795  -0.046342301773   8.150723596924 Bohr
[INPUT] 11 H     -0.000000020000  -2.177377950000   3.012910670000 AA   -0.000000037795  -4.114647995167   5.693576004080 Bohr
[INPUT] 12 H      0.000000000000  -2.037784570000   0.513452260000 AA    0.000000000000  -3.850854738165   0.970284149439 Bohr
[INPUT] 13 H     -0.000000030000   1.034823980000  -1.844186940000 AA   -0.000000056692   1.955533909332  -3.485008239100 Bohr
[INPUT] 14 H     -0.891248770000  -0.503699800000  -1.828404470000 AA   -1.684216084155  -0.951854670998  -3.455183693231 Bohr
[INPUT] 15 H      0.891248790000  -0.503699760000  -1.828404480000 AA    1.684216121950  -0.951854595409  -3.455183712128 Bohr
[INPUT] 16 Cl    -0.000000010000  -0.008385080000  -4.000401790000 AA   -0.000000018897  -0.015845504733  -7.559663771320 Bohr
[INPUT] ---------------- BASIS SET ---------------- 
[INPUT] l, kappa, [nprim/nctr], expnt,             c_1 c_2 ...
[INPUT] H
[INPUT] 0    0    [3    /1   ]  18.731137         0.0334946
                                2.8253937         0.23472695
                                0.6401217         0.81375733
[INPUT] 0    0    [1    /1   ]  0.1612778            1
[INPUT] Cl
[INPUT] 0    0    [6    /1   ]  25180.1           0.001833
                                3780.35           0.014034
                                860.474           0.069097
                                242.145           0.237452
                                77.3349           0.483034
                                26.247            0.339856
[INPUT] 0    0    [6    /1   ]  491.765           -0.0022974
                                116.984           -0.030714
                                37.4153           -0.112528
                                13.7834           0.045016
                                5.45215           0.589353
                                2.22588           0.465206
[INPUT] 0    0    [3    /1   ]  3.18649           -0.25183
                                1.14427           0.061589
                                0.420377          1.06018
[INPUT] 0    0    [1    /1   ]  0.142657             1
[INPUT] 1    0    [6    /1   ]  491.765           0.0039894
                                116.984           0.030318
                                37.4153           0.12988
                                13.7834           0.327951
                                5.45215           0.453527
                                2.22588           0.252154
[INPUT] 1    0    [3    /1   ]  3.18649           -0.014299
                                1.14427           0.323572
                                0.420377          0.743507
[INPUT] 1    0    [1    /1   ]  0.142657             1
[INPUT] 2    0    [1    /1   ]  0.75                 1
[INPUT] N
[INPUT] 0    0    [6    /1   ]  4173.511          0.0018348
                                627.4579          0.013995
                                142.9021          0.068587
                                40.23433          0.232241
                                12.82021          0.46907
                                4.390437          0.360455
[INPUT] 0    0    [3    /1   ]  11.626358         -0.114961
                                2.71628           -0.169118
                                0.772218          1.145852
[INPUT] 0    0    [1    /1   ]  0.2120313            1
[INPUT] 1    0    [3    /1   ]  11.626358         0.06758
                                2.71628           0.323907
                                0.772218          0.740895
[INPUT] 1    0    [1    /1   ]  0.2120313            1
[INPUT] 2    0    [1    /1   ]  0.8                  1
[INPUT] C
[INPUT] 0    0    [6    /1   ]  3047.5249         0.0018347
                                457.36951         0.0140373
                                103.94869         0.0688426
                                29.210155         0.2321844
                                9.286663          0.4679413
                                3.163927          0.362312
[INPUT] 0    0    [3    /1   ]  7.8682724         -0.1193324
                                1.8812885         -0.1608542
                                0.5442493         1.1434564
[INPUT] 0    0    [1    /1   ]  0.1687144            1
[INPUT] 1    0    [3    /1   ]  7.8682724         0.0689991
                                1.8812885         0.316424
                                0.5442493         0.7443083
[INPUT] 1    0    [1    /1   ]  0.1687144            1
[INPUT] 2    0    [1    /1   ]  0.8                  1

nuclear repulsion = 374.976690023007
number of shells = 66
number of NR pGTOs = 272
number of NR cGTOs = 132
basis = 631g*
ecp = {}
CPU time:         0.37


******** <class 'pyscf.dft.rks.RKS'> ********
method = RKS
initial guess = minao
damping factor = 0
level_shift factor = 0
DIIS = <class 'pyscf.scf.diis.CDIIS'>
diis_start_cycle = 1
diis_space = 8
SCF conv_tol = 1e-09
SCF conv_tol_grad = None
SCF max_cycles = 50
direct_scf = True
direct_scf_tol = 1e-13
chkfile to save SCF result = /scratch/global/yangjunjie/tmpy9vuw07d
max_memory 127949 MB (current use 81 MB)
XC library pyscf.dft.libxc version 5.2.0
    S. Lehtola, C. Steigemann, M. J. Oliveira, and M. A. Marques, SoftwareX 7, 1 (2018)
XC functionals = b3lyp
    P. A. M. Dirac, Math. Proc. Cambridge Philos. Soc. 26, 376 (1930)
    F. Bloch, Z. Phys. 57, 545 (1929)
    A. D. Becke, Phys. Rev. A 38, 3098 (1988)
    C. Lee, W. Yang, and R. G. Parr, Phys. Rev. B 37, 785 (1988)
    B. Miehlich, A. Savin, H. Stoll, and H. Preuss, Chem. Phys. Lett. 157, 200 (1989)
    S. H. Vosko, L. Wilk, and M. Nusair, Can. J. Phys. 58, 1200 (1980)
radial grids: 
    Treutler-Ahlrichs [JCP 102, 346 (1995); DOI:10.1063/1.469408] (M4) radial grids
    
becke partition: Becke, JCP 88, 2547 (1988); DOI:10.1063/1.454033
pruning grids: <function nwchem_prune at 0x7efcb6253ee0>
grids dens level: 3
symmetrized grids: False
atomic radii adjust function: <function treutler_atomic_radii_adjust at 0x7efcb6253e50>
small_rho_cutoff = 1e-07
Set gradient conv threshold to 3.16228e-05
atom C rad-grids = 75, ang-grids = [ 50  50  50  50  50  50  50  50  50  50  50  50  50  50  50  50  50  50
  50  50  50  50  50  86  86  86  86  86  86  86  86  86  86 266 266 266
 266 266 266 266 302 302 302 302 302 302 302 302 302 302 302 302 302 302
 302 302 302 302 302 302 266 266 266 266 266 266 266 266 266 266 266 266
 266 266 266]
atom N rad-grids = 75, ang-grids = [ 50  50  50  50  50  50  50  50  50  50  50  50  50  50  50  50  50  50
  50  50  50  50  50  86  86  86  86  86  86  86  86  86 266 266 266 266
 266 266 266 302 302 302 302 302 302 302 302 302 302 302 302 302 302 302
 302 302 302 302 266 266 266 266 266 266 266 266 266 266 266 266 266 266
 266 266 266]
atom H rad-grids = 50, ang-grids = [ 50  50  50  50  50  50  50  50  50  50  50  50  50  50  86  86  86  86
 266 266 266 266 302 302 302 302 302 302 302 302 302 302 302 302 302 266
 266 266 266 266 266 266 266 266 266 266 266 266 266 266]
atom Cl rad-grids = 80, ang-grids = [ 50  50  50  50  50  50  50  50  50  50  50  50  50  50  50  50  50  50
  50  50  50  50  50  50  86  86  86  86  86  86  86  86  86  86  86  86
  86 350 350 350 350 350 350 350 350 350 434 434 434 434 434 434 434 434
 434 434 434 434 434 434 434 434 434 434 350 350 350 350 350 350 350 350
 350 350 350 350 350 350 350 350]
tot grids = 196530
Drop grids 33031
    CPU time for setting up grids      3.18 sec, wall time      0.12 sec
nelec by numeric integration = 67.9762528462494
    CPU time for vxc      6.18 sec, wall time      0.22 sec
E1 = -1763.1679586611988  Ecoul = 709.5328955416904  Exc = -70.37202213506947
init E= -749.03039523157
cond(S) = 6761.639371848502
    CPU time for initialize scf     16.31 sec, wall time      0.65 sec
  HOMO = -0.300830775903149  LUMO = -0.104515920154785
  mo_energy =
[-1.01597213e+02 -1.44003476e+01 -1.02936256e+01 -1.02929681e+01
 -1.02914518e+01 -1.02889086e+01 -1.02872468e+01 -1.02870521e+01
 -9.53818203e+00 -7.29407962e+00 -7.29286940e+00 -7.29286882e+00
 -1.09456094e+00 -9.37125827e-01 -9.29413856e-01 -8.92050561e-01
 -7.57853846e-01 -7.11758455e-01 -7.02863426e-01 -5.78133084e-01
 -5.31308333e-01 -5.01813298e-01 -4.73499212e-01 -4.72629714e-01
 -4.64486204e-01 -4.60136810e-01 -4.35026089e-01 -4.34266765e-01
 -3.87061543e-01 -3.43892840e-01 -3.42889378e-01 -3.22577292e-01
 -3.02656976e-01 -3.00830776e-01 -1.04515920e-01 -7.27244472e-02
 -3.50263844e-02  4.67366619e-02  7.18040705e-02  7.49740048e-02
  8.64864760e-02  1.08021643e-01  1.21689710e-01  1.23560716e-01
  1.42479475e-01  1.64123535e-01  1.91466860e-01  2.38529513e-01
  2.59963399e-01  2.75082843e-01  3.59715314e-01  3.92623715e-01
  4.01023149e-01  4.15072731e-01  4.15092938e-01  4.27800283e-01
  4.63448245e-01  4.74772202e-01  4.87289459e-01  5.08302547e-01
  5.20916054e-01  5.29335683e-01  5.37647402e-01  5.51813349e-01
  5.55571255e-01  5.56040433e-01  5.63203699e-01  6.08959454e-01
  6.28016114e-01  6.41572960e-01  6.75317860e-01  7.58635086e-01
  7.64250040e-01  7.84435057e-01  7.87593716e-01  7.90209790e-01
  7.95389911e-01  7.98594400e-01  8.26937726e-01  8.42199729e-01
  8.49325016e-01  8.65936885e-01  8.76668328e-01  8.98141822e-01
  9.07510296e-01  9.30752168e-01  9.74848369e-01  1.00698670e+00
  1.04590784e+00  1.08048348e+00  1.12840973e+00  1.14790220e+00
  1.16748162e+00  1.17669853e+00  1.30784273e+00  1.33909443e+00
  1.40320103e+00  1.41419849e+00  1.41938700e+00  1.44471812e+00
  1.44903756e+00  1.45246497e+00  1.62398575e+00  1.62579219e+00
  1.65782588e+00  1.70306650e+00  1.75641557e+00  1.76334433e+00
  1.85685392e+00  1.87876351e+00  1.98656874e+00  2.06714825e+00
  2.07801870e+00  2.10167039e+00  2.10686488e+00  2.12310171e+00
  2.13180508e+00  2.16777143e+00  2.18075162e+00  2.23042035e+00
  2.24960263e+00  2.30499871e+00  2.47575757e+00  2.48680992e+00
  2.60438745e+00  2.61639644e+00  2.62421865e+00  2.65515825e+00
  2.68425029e+00  2.69097480e+00  2.95963359e+00  3.32015411e+00]
nelec by numeric integration = 68.00002527501717
    CPU time for vxc      5.87 sec, wall time      0.21 sec
E1 = -1771.3350061115684  Ecoul = 719.088633360493  Exc = -70.81259845409225
cycle= 1 E= -748.08228118216  delta_E= 0.948  |g|= 0.379  |ddm|= 3.95
    CPU time for cycle= 1      6.37 sec, wall time      0.23 sec
  HOMO = -0.198994623731605  LUMO = 0.0066621623126226
  mo_energy =
[-1.01355984e+02 -1.42033158e+01 -1.01790408e+01 -1.01771501e+01
 -1.01494375e+01 -1.01341262e+01 -1.00919955e+01 -1.00905243e+01
 -9.31187304e+00 -7.07278526e+00 -7.06282772e+00 -7.06281928e+00
 -8.89713571e-01 -7.74598972e-01 -7.58490078e-01 -7.33422351e-01
 -6.18421707e-01 -6.02606379e-01 -5.94183651e-01 -5.12804193e-01
 -4.48337097e-01 -4.35471140e-01 -4.11601938e-01 -4.01213883e-01
 -3.99612411e-01 -3.81318843e-01 -3.62182709e-01 -3.38595481e-01
 -3.31443027e-01 -2.46129712e-01 -2.39483516e-01 -2.26276629e-01
 -2.25493210e-01 -1.98994624e-01  6.66216231e-03  2.34857944e-02
  8.05511375e-02  1.06222680e-01  1.30031259e-01  1.37724260e-01
  1.59014397e-01  1.65747988e-01  1.80816262e-01  1.83243724e-01
  1.86679421e-01  2.16245639e-01  2.72640693e-01  3.12595406e-01
  3.51746769e-01  3.52883427e-01  4.63201034e-01  4.69052592e-01
  4.86508706e-01  5.15027954e-01  5.15373044e-01  5.21518325e-01
  5.34716306e-01  5.61685672e-01  5.72225615e-01  5.98118316e-01
  6.03089612e-01  6.05348950e-01  6.20383639e-01  6.21045589e-01
  6.26696944e-01  6.32445842e-01  6.61044553e-01  6.79744266e-01
  7.16311174e-01  7.21015380e-01  7.64453184e-01  8.35207455e-01
  8.44397882e-01  8.55658185e-01  8.68873105e-01  8.88695092e-01
  9.13938090e-01  9.24601565e-01  9.28548481e-01  9.53506458e-01
  9.55099027e-01  9.79229589e-01  9.80825067e-01  1.01094715e+00
  1.02009859e+00  1.02264116e+00  1.05760675e+00  1.09610222e+00
  1.11248327e+00  1.14588878e+00  1.18827462e+00  1.24062111e+00
  1.25492773e+00  1.28909062e+00  1.41139077e+00  1.41343678e+00
  1.47677865e+00  1.51192238e+00  1.52936642e+00  1.54183516e+00
  1.54472573e+00  1.56643685e+00  1.73924505e+00  1.74077530e+00
  1.75740154e+00  1.79238290e+00  1.87809045e+00  1.87948155e+00
  1.96161267e+00  1.98269533e+00  2.10647777e+00  2.18578175e+00
  2.18888141e+00  2.21528688e+00  2.21764676e+00  2.23435310e+00
  2.24895329e+00  2.27543328e+00  2.28778065e+00  2.35144357e+00
  2.36082069e+00  2.41596059e+00  2.58815139e+00  2.59563289e+00
  2.71682159e+00  2.74199348e+00  2.74986677e+00  2.78365271e+00
  2.80715343e+00  2.82773611e+00  3.08994978e+00  3.45198160e+00]
nelec by numeric integration = 68.00002402352291
    CPU time for vxc      6.13 sec, wall time      0.22 sec
E1 = -1763.6837308257388  Ecoul = 710.8497683379848  Exc = -70.22761916924713
cycle= 2 E= -748.084891633994  delta_E= -0.00261  |g|= 0.392  |ddm|= 0.971
    CPU time for cycle= 2      6.65 sec, wall time      0.24 sec
  HOMO = -0.263625373750774  LUMO = -0.0388102425425124
  mo_energy =
[-1.01470629e+02 -1.43608492e+01 -1.02134455e+01 -1.02128147e+01
 -1.02052373e+01 -1.02015727e+01 -1.02011957e+01 -1.01956467e+01
 -9.40497784e+00 -7.16782290e+00 -7.15813822e+00 -7.15812824e+00
 -9.52834913e-01 -8.15475839e-01 -8.10503605e-01 -7.75848233e-01
 -6.48844989e-01 -6.38583383e-01 -6.36387762e-01 -5.39603550e-01
 -4.89465991e-01 -4.72989004e-01 -4.42022387e-01 -4.21001264e-01
 -4.18552572e-01 -4.17705052e-01 -4.06884446e-01 -3.75256020e-01
 -3.68617957e-01 -2.96983531e-01 -2.77002426e-01 -2.65922785e-01
 -2.63975327e-01 -2.63625374e-01 -3.88102425e-02 -1.22129693e-02
  5.84923970e-02  8.55090723e-02  1.18999447e-01  1.24892290e-01
  1.40902662e-01  1.47229644e-01  1.56200803e-01  1.74122204e-01
  1.74597246e-01  2.06161107e-01  2.42162164e-01  2.86407518e-01
  3.16393719e-01  3.26004667e-01  4.37128527e-01  4.41521528e-01
  4.53598966e-01  4.87669875e-01  4.88014714e-01  4.88210565e-01
  5.03276298e-01  5.26695753e-01  5.49495866e-01  5.73773007e-01
  5.74407672e-01  5.76731192e-01  5.84369159e-01  5.95038010e-01
  5.95155415e-01  6.03209009e-01  6.20401661e-01  6.49529753e-01
  6.82231350e-01  6.91314485e-01  7.33857566e-01  8.07774441e-01
  8.18244280e-01  8.36844841e-01  8.38087600e-01  8.45905740e-01
  8.85961761e-01  8.88185052e-01  9.03715049e-01  9.18419484e-01
  9.25857874e-01  9.38955753e-01  9.40405773e-01  9.82004121e-01
  9.83623957e-01  9.87652401e-01  1.01999182e+00  1.07131101e+00
  1.08805910e+00  1.11923103e+00  1.16543632e+00  1.20794495e+00
  1.22052905e+00  1.23943164e+00  1.36800442e+00  1.37894585e+00
  1.45451578e+00  1.46859710e+00  1.47727472e+00  1.50238484e+00
  1.50901734e+00  1.51213868e+00  1.71213141e+00  1.71428004e+00
  1.71528415e+00  1.75700756e+00  1.82605469e+00  1.82909504e+00
  1.91728417e+00  1.94429619e+00  2.05950414e+00  2.13829437e+00
  2.14091814e+00  2.16655749e+00  2.17218402e+00  2.18662170e+00
  2.21969777e+00  2.25528772e+00  2.26700580e+00  2.29906484e+00
  2.31733604e+00  2.36773414e+00  2.53919269e+00  2.55274828e+00
  2.67075189e+00  2.69427192e+00  2.69577948e+00  2.73571059e+00
  2.75863666e+00  2.77001214e+00  3.03792508e+00  3.40211006e+00]
nelec by numeric integration = 68.0000238452428
    CPU time for vxc      6.03 sec, wall time      0.22 sec
E1 = -1767.3926435989324  Ecoul = 714.7927851819059  Exc = -70.50020181795766
cycle= 3 E= -748.123370211977  delta_E= -0.0385  |g|= 0.0853  |ddm|= 0.488
    CPU time for cycle= 3      6.56 sec, wall time      0.23 sec
  HOMO = -0.258832578385248  LUMO = -0.0382416047360218
  mo_energy =
[-1.01491837e+02 -1.43269578e+01 -1.02284853e+01 -1.02275851e+01
 -1.02188036e+01 -1.02079168e+01 -1.02073433e+01 -1.02068811e+01
 -9.42268636e+00 -7.18578807e+00 -7.17624470e+00 -7.17623391e+00
 -9.46564226e-01 -8.18849819e-01 -8.15240057e-01 -7.79506012e-01
 -6.54031196e-01 -6.42914539e-01 -6.36480022e-01 -5.42520851e-01
 -4.91412181e-01 -4.75331033e-01 -4.45104647e-01 -4.23233995e-01
 -4.21134538e-01 -4.20591697e-01 -4.06674565e-01 -3.81978411e-01
 -3.70305933e-01 -2.95325413e-01 -2.80707342e-01 -2.71672955e-01
 -2.71076345e-01 -2.58832578e-01 -3.82416047e-02 -1.52069792e-02
  5.44942933e-02  8.35871425e-02  1.17463196e-01  1.23395442e-01
  1.39673463e-01  1.46296530e-01  1.55158823e-01  1.73311819e-01
  1.73694491e-01  2.05011994e-01  2.42048657e-01  2.84544826e-01
  3.17099884e-01  3.24065553e-01  4.30202808e-01  4.40275104e-01
  4.51468750e-01  4.82348383e-01  4.82668492e-01  4.85887230e-01
  5.00606031e-01  5.26281292e-01  5.46622641e-01  5.70566290e-01
  5.71628598e-01  5.74798466e-01  5.82217699e-01  5.91568079e-01
  5.92968949e-01  5.99473047e-01  6.22401928e-01  6.46806678e-01
  6.80161594e-01  6.88432815e-01  7.33124228e-01  8.05579501e-01
  8.14744097e-01  8.33500690e-01  8.35696327e-01  8.52042184e-01
  8.80357830e-01  8.83075463e-01  8.99836760e-01  9.15298991e-01
  9.20320399e-01  9.32048301e-01  9.34891718e-01  9.76679819e-01
  9.78291764e-01  9.83722408e-01  1.02231589e+00  1.06844096e+00
  1.08557853e+00  1.11884062e+00  1.16341171e+00  1.20757623e+00
  1.21817941e+00  1.23741543e+00  1.36561496e+00  1.38091693e+00
  1.45444953e+00  1.46377295e+00  1.47550367e+00  1.50014762e+00
  1.51169210e+00  1.51530491e+00  1.70973210e+00  1.71052769e+00
  1.71372423e+00  1.75713229e+00  1.82620919e+00  1.82792424e+00
  1.91621835e+00  1.94100640e+00  2.05579922e+00  2.13677976e+00
  2.13831312e+00  2.16527968e+00  2.16888791e+00  2.18609136e+00
  2.21513834e+00  2.25183674e+00  2.26361494e+00  2.29859731e+00
  2.31347247e+00  2.36826301e+00  2.53933218e+00  2.54950271e+00
  2.66891105e+00  2.69284021e+00  2.69474932e+00  2.73208345e+00
  2.75633661e+00  2.77011532e+00  3.03765882e+00  3.39970688e+00]
nelec by numeric integration = 68.00002392823103
    CPU time for vxc      5.85 sec, wall time      0.21 sec
E1 = -1767.5302665453423  Ecoul = 714.9395302194292  Exc = -70.51051298335341
cycle= 4 E= -748.124559286259  delta_E= -0.00119  |g|= 0.0423  |ddm|= 0.0998
    CPU time for cycle= 4      6.41 sec, wall time      0.23 sec
  HOMO = -0.263015392358549  LUMO = -0.037557526403869
  mo_energy =
[-1.01488251e+02 -1.43382772e+01 -1.02268218e+01 -1.02264830e+01
 -1.02117096e+01 -1.02084081e+01 -1.02013294e+01 -1.02011657e+01
 -9.42020105e+00 -7.18314093e+00 -7.17368335e+00 -7.17367240e+00
 -9.47672274e-01 -8.18201843e-01 -8.12670832e-01 -7.77402078e-01
 -6.54941764e-01 -6.41130517e-01 -6.35780830e-01 -5.40919433e-01
 -4.89785337e-01 -4.73841599e-01 -4.43566174e-01 -4.24655869e-01
 -4.22244885e-01 -4.19007716e-01 -4.06131263e-01 -3.81978569e-01
 -3.68924617e-01 -2.94415117e-01 -2.78483353e-01 -2.71567296e-01
 -2.70958251e-01 -2.63015392e-01 -3.75575264e-02 -1.33475326e-02
  5.42453472e-02  8.48288694e-02  1.17393145e-01  1.23210880e-01
  1.40954928e-01  1.46244110e-01  1.56053628e-01  1.71926470e-01
  1.74094043e-01  2.04543537e-01  2.42649130e-01  2.86400070e-01
  3.17439563e-01  3.25506070e-01  4.30235415e-01  4.40463134e-01
  4.52445865e-01  4.82290361e-01  4.82600023e-01  4.86213206e-01
  5.02665371e-01  5.26822102e-01  5.46047072e-01  5.70652100e-01
  5.73457807e-01  5.76018147e-01  5.83938501e-01  5.93351265e-01
  5.95584612e-01  6.02147076e-01  6.21042890e-01  6.48367971e-01
  6.82562851e-01  6.88477975e-01  7.31741493e-01  8.07639699e-01
  8.17949878e-01  8.33996320e-01  8.36808429e-01  8.48962276e-01
  8.80303029e-01  8.82588303e-01  9.00213905e-01  9.16904114e-01
  9.20827138e-01  9.31915007e-01  9.35603924e-01  9.76154755e-01
  9.79143467e-01  9.84042045e-01  1.02111750e+00  1.06835576e+00
  1.08659598e+00  1.11955109e+00  1.16553746e+00  1.20816786e+00
  1.21717629e+00  1.23925456e+00  1.36798552e+00  1.38092593e+00
  1.45471804e+00  1.46679073e+00  1.47813822e+00  1.50098242e+00
  1.50867929e+00  1.51447162e+00  1.70831508e+00  1.70924684e+00
  1.71386816e+00  1.75773878e+00  1.82780648e+00  1.82900201e+00
  1.91859638e+00  1.94312809e+00  2.05846623e+00  2.13857131e+00
  2.14040748e+00  2.16758395e+00  2.17059208e+00  2.18705395e+00
  2.21406211e+00  2.25028209e+00  2.26215526e+00  2.29981738e+00
  2.31566242e+00  2.36844523e+00  2.54035779e+00  2.55179654e+00
  2.67076342e+00  2.69364011e+00  2.69596725e+00  2.73398043e+00
  2.75772040e+00  2.77138013e+00  3.03788773e+00  3.40118834e+00]
nelec by numeric integration = 68.00002400263097
    CPU time for vxc      5.89 sec, wall time      0.21 sec
E1 = -1767.4976423872022  Ecoul = 714.9048388760942  Exc = -70.50884722519994
cycle= 5 E= -748.1249607133  delta_E= -0.000401  |g|= 0.0104  |ddm|= 0.0484
    CPU time for cycle= 5      6.42 sec, wall time      0.23 sec
  HOMO = -0.26155763415361  LUMO = -0.0370266344043136
  mo_energy =
[-1.01484933e+02 -1.43358501e+01 -1.02233922e+01 -1.02230830e+01
 -1.02131558e+01 -1.02057248e+01 -1.02025537e+01 -1.02023373e+01
 -9.41764910e+00 -7.18050016e+00 -7.17106179e+00 -7.17105074e+00
 -9.46125036e-01 -8.17218232e-01 -8.12721785e-01 -7.76582034e-01
 -6.53822236e-01 -6.40648804e-01 -6.35128427e-01 -5.40566815e-01
 -4.89260067e-01 -4.73749329e-01 -4.42960492e-01 -4.23679284e-01
 -4.21295243e-01 -4.19035300e-01 -4.05333838e-01 -3.80893201e-01
 -3.68715423e-01 -2.94178415e-01 -2.77876180e-01 -2.70604325e-01
 -2.70007358e-01 -2.61557634e-01 -3.70266344e-02 -1.27924815e-02
  5.52395309e-02  8.48560590e-02  1.17891805e-01  1.23656084e-01
  1.41407566e-01  1.46540865e-01  1.56101941e-01  1.72616640e-01
  1.74278466e-01  2.05176088e-01  2.43230547e-01  2.86391329e-01
  3.18113978e-01  3.25687594e-01  4.31039574e-01  4.40965605e-01
  4.53039330e-01  4.82979728e-01  4.83291297e-01  4.86880980e-01
  5.03045412e-01  5.27315671e-01  5.46754361e-01  5.71360031e-01
  5.73924762e-01  5.76565574e-01  5.84606050e-01  5.93675730e-01
  5.95132120e-01  6.02039859e-01  6.21952617e-01  6.48846342e-01
  6.82320070e-01  6.89602997e-01  7.32965889e-01  8.07583213e-01
  8.17310072e-01  8.34921992e-01  8.37222674e-01  8.50211226e-01
  8.81309553e-01  8.83695287e-01  9.00784869e-01  9.17187595e-01
  9.21510083e-01  9.33010899e-01  9.36302921e-01  9.77289216e-01
  9.79852407e-01  9.84715469e-01  1.02207088e+00  1.06909620e+00
  1.08705945e+00  1.12004223e+00  1.16539366e+00  1.20856458e+00
  1.21808843e+00  1.23977326e+00  1.36828577e+00  1.38128300e+00
  1.45528614e+00  1.46703289e+00  1.47809205e+00  1.50223089e+00
  1.50977443e+00  1.51550016e+00  1.70961430e+00  1.71051918e+00
  1.71462287e+00  1.75843414e+00  1.82837160e+00  1.82934593e+00
  1.91849145e+00  1.94370092e+00  2.05894748e+00  2.13911074e+00
  2.14096458e+00  2.16760954e+00  2.17146913e+00  2.18779467e+00
  2.21536200e+00  2.25145449e+00  2.26331549e+00  2.30014019e+00
  2.31631559e+00  2.36943583e+00  2.54091258e+00  2.55232209e+00
  2.67120058e+00  2.69441559e+00  2.69651471e+00  2.73470856e+00
  2.75854324e+00  2.77172751e+00  3.03886279e+00  3.40178465e+00]
nelec by numeric integration = 68.00002392577042
    CPU time for vxc      5.87 sec, wall time      0.21 sec
E1 = -1767.4287827864687  Ecoul = 714.8314721146966  Exc = -70.50436594742737
cycle= 6 E= -748.124986596192  delta_E= -2.59e-05  |g|= 0.00461  |ddm|= 0.0156
    CPU time for cycle= 6      6.39 sec, wall time      0.23 sec
  HOMO = -0.26181592726195  LUMO = -0.0370607755838501
  mo_energy =
[-1.01484939e+02 -1.43362689e+01 -1.02245717e+01 -1.02241944e+01
 -1.02122660e+01 -1.02058851e+01 -1.02022346e+01 -1.02020006e+01
 -9.41770144e+00 -7.18054452e+00 -7.17110979e+00 -7.17109872e+00
 -9.46634513e-01 -8.17346267e-01 -8.12630051e-01 -7.76835817e-01
 -6.53880675e-01 -6.40701288e-01 -6.35239088e-01 -5.40606410e-01
 -4.89368989e-01 -4.73722288e-01 -4.43164754e-01 -4.23813301e-01
 -4.21413736e-01 -4.18924519e-01 -4.05547913e-01 -3.80996317e-01
 -3.68729496e-01 -2.94153525e-01 -2.78081336e-01 -2.70711377e-01
 -2.70113330e-01 -2.61815927e-01 -3.70607756e-02 -1.29459184e-02
  5.51348648e-02  8.49325415e-02  1.17820306e-01  1.23605526e-01
  1.41356601e-01  1.46525010e-01  1.56178760e-01  1.72506085e-01
  1.74293095e-01  2.05062297e-01  2.43097864e-01  2.86476898e-01
  3.17959558e-01  3.25706002e-01  4.31012741e-01  4.40898101e-01
  4.52891169e-01  4.82880898e-01  4.83191307e-01  4.86695605e-01
  5.02955563e-01  5.27246222e-01  5.46666933e-01  5.71265392e-01
  5.73790083e-01  5.76450080e-01  5.84390601e-01  5.93659848e-01
  5.95326027e-01  6.02130669e-01  6.21797536e-01  6.48717667e-01
  6.82465977e-01  6.89353004e-01  7.32754161e-01  8.07617898e-01
  8.17604584e-01  8.34697930e-01  8.37157112e-01  8.49995458e-01
  8.81197602e-01  8.83561486e-01  9.00777527e-01  9.17239562e-01
  9.21454458e-01  9.32890715e-01  9.36245982e-01  9.77173110e-01
  9.79809700e-01  9.84642587e-01  1.02188870e+00  1.06901100e+00
  1.08697370e+00  1.11994490e+00  1.16547696e+00  1.20850720e+00
  1.21796976e+00  1.23965988e+00  1.36820726e+00  1.38125150e+00
  1.45517111e+00  1.46699955e+00  1.47815699e+00  1.50183064e+00
  1.50964490e+00  1.51524468e+00  1.70947078e+00  1.71037228e+00
  1.71444636e+00  1.75826802e+00  1.82828680e+00  1.82928877e+00
  1.91856895e+00  1.94350768e+00  2.05881038e+00  2.13898463e+00
  2.14078481e+00  2.16767009e+00  2.17121989e+00  2.18765117e+00
  2.21521601e+00  2.25132415e+00  2.26318162e+00  2.30016537e+00
  2.31612144e+00  2.36917257e+00  2.54080300e+00  2.55216631e+00
  2.67111190e+00  2.69427180e+00  2.69644463e+00  2.73453646e+00
  2.75831893e+00  2.77173577e+00  3.03865873e+00  3.40170335e+00]
nelec by numeric integration = 68.00002394424862
    CPU time for vxc      6.62 sec, wall time      0.24 sec
E1 = -1767.4412391825765  Ecoul = 714.8443276367556  Exc = -70.50477083936823
cycle= 7 E= -748.124992362182  delta_E= -5.77e-06  |g|= 0.00062  |ddm|= 0.00468
    CPU time for cycle= 7      7.50 sec, wall time      0.27 sec
  HOMO = -0.2617991339285  LUMO = -0.0370605430280961
  mo_energy =
[-1.01485234e+02 -1.43362731e+01 -1.02244927e+01 -1.02241584e+01
 -1.02124573e+01 -1.02060824e+01 -1.02020995e+01 -1.02018941e+01
 -9.41793124e+00 -7.18078319e+00 -7.17134480e+00 -7.17133373e+00
 -9.46613209e-01 -8.17435395e-01 -8.12650878e-01 -7.76788673e-01
 -6.53942224e-01 -6.40690957e-01 -6.35223085e-01 -5.40601574e-01
 -4.89350606e-01 -4.73695743e-01 -4.43129487e-01 -4.23856111e-01
 -4.21460787e-01 -4.18948917e-01 -4.05533521e-01 -3.81085012e-01
 -3.68718671e-01 -2.94163512e-01 -2.78038980e-01 -2.70800790e-01
 -2.70201090e-01 -2.61799134e-01 -3.70605430e-02 -1.29127500e-02
  5.50707015e-02  8.49151331e-02  1.17825799e-01  1.23607752e-01
  1.41373741e-01  1.46526804e-01  1.56172886e-01  1.72484820e-01
  1.74295237e-01  2.05063339e-01  2.43103453e-01  2.86478350e-01
  3.17980937e-01  3.25718380e-01  4.30932709e-01  4.40906178e-01
  4.52899769e-01  4.82817281e-01  4.83127403e-01  4.86663884e-01
  5.02971429e-01  5.27252076e-01  5.46626075e-01  5.71241162e-01
  5.73824444e-01  5.76467996e-01  5.84397327e-01  5.93642602e-01
  5.95322088e-01  6.02129638e-01  6.21796003e-01  6.48748702e-01
  6.82468327e-01  6.89373218e-01  7.32750852e-01  8.07649093e-01
  8.17581189e-01  8.34725105e-01  8.37174528e-01  8.49995639e-01
  8.81125578e-01  8.83484308e-01  9.00749106e-01  9.17215157e-01
  9.21413139e-01  9.32803279e-01  9.36198796e-01  9.77094538e-01
  9.79759486e-01  9.84619619e-01  1.02190363e+00  1.06897264e+00
  1.08698609e+00  1.11994696e+00  1.16548347e+00  1.20851869e+00
  1.21792257e+00  1.23967819e+00  1.36822431e+00  1.38125346e+00
  1.45518628e+00  1.46701580e+00  1.47816724e+00  1.50186813e+00
  1.50964292e+00  1.51525881e+00  1.70939164e+00  1.71029962e+00
  1.71446415e+00  1.75827957e+00  1.82829794e+00  1.82930204e+00
  1.91856778e+00  1.94354581e+00  2.05882911e+00  2.13899983e+00
  2.14081716e+00  2.16766871e+00  2.17126007e+00  2.18765611e+00
  2.21513924e+00  2.25126058e+00  2.26312091e+00  2.30016165e+00
  2.31616349e+00  2.36919381e+00  2.54080802e+00  2.55219651e+00
  2.67112470e+00  2.69429414e+00  2.69646091e+00  2.73457252e+00
  2.75835227e+00  2.77173613e+00  3.03868157e+00  3.40172454e+00]
nelec by numeric integration = 68.00002395008177
    CPU time for vxc      6.00 sec, wall time      0.21 sec
E1 = -1767.4434405165073  Ecoul = 714.8467245639522  Exc = -70.50496652845644
cycle= 8 E= -748.124992458004  delta_E= -9.58e-08  |g|= 0.000196  |ddm|= 0.000771
    CPU time for cycle= 8      6.82 sec, wall time      0.24 sec
  HOMO = -0.261798298649007  LUMO = -0.037051819349418
  mo_energy =
[-1.01485249e+02 -1.43362714e+01 -1.02244873e+01 -1.02241282e+01
 -1.02123952e+01 -1.02060733e+01 -1.02021405e+01 -1.02019144e+01
 -9.41793681e+00 -7.18079110e+00 -7.17135069e+00 -7.17133962e+00
 -9.46608530e-01 -8.17429090e-01 -8.12642714e-01 -7.76789872e-01
 -6.53939078e-01 -6.40686351e-01 -6.35221903e-01 -5.40594667e-01
 -4.89347114e-01 -4.73702368e-01 -4.43131661e-01 -4.23850828e-01
 -4.21455746e-01 -4.18936463e-01 -4.05529673e-01 -3.81083803e-01
 -3.68718500e-01 -2.94154991e-01 -2.78040891e-01 -2.70799096e-01
 -2.70199173e-01 -2.61798299e-01 -3.70518193e-02 -1.29145134e-02
  5.50732993e-02  8.49170370e-02  1.17825837e-01  1.23608360e-01
  1.41376335e-01  1.46525745e-01  1.56177449e-01  1.72488728e-01
  1.74297569e-01  2.05063974e-01  2.43106937e-01  2.86482947e-01
  3.17982417e-01  3.25718852e-01  4.30926754e-01  4.40908123e-01
  4.52900984e-01  4.82818658e-01  4.83128805e-01  4.86667029e-01
  5.02974902e-01  5.27254902e-01  5.46630109e-01  5.71244833e-01
  5.73822436e-01  5.76467470e-01  5.84404433e-01  5.93653712e-01
  5.95325723e-01  6.02134547e-01  6.21797779e-01  6.48747273e-01
  6.82470617e-01  6.89374908e-01  7.32755046e-01  8.07642273e-01
  8.17591557e-01  8.34724902e-01  8.37175374e-01  8.49998603e-01
  8.81129433e-01  8.83487622e-01  9.00752017e-01  9.17218859e-01
  9.21416802e-01  9.32806463e-01  9.36201062e-01  9.77095241e-01
  9.79761759e-01  9.84622820e-01  1.02190447e+00  1.06897595e+00
  1.08698479e+00  1.11995025e+00  1.16548454e+00  1.20851806e+00
  1.21792444e+00  1.23968168e+00  1.36822801e+00  1.38125738e+00
  1.45518709e+00  1.46702141e+00  1.47816866e+00  1.50187066e+00
  1.50964560e+00  1.51526372e+00  1.70939892e+00  1.71030657e+00
  1.71446566e+00  1.75828362e+00  1.82830320e+00  1.82930625e+00
  1.91857249e+00  1.94354393e+00  2.05883472e+00  2.13900419e+00
  2.14081775e+00  2.16767526e+00  2.17126018e+00  2.18766380e+00
  2.21514645e+00  2.25126718e+00  2.26312721e+00  2.30016936e+00
  2.31616192e+00  2.36919729e+00  2.54081477e+00  2.55219829e+00
  2.67112933e+00  2.69429648e+00  2.69646473e+00  2.73457234e+00
  2.75835387e+00  2.77174399e+00  3.03868534e+00  3.40172781e+00]
nelec by numeric integration = 68.00002394946698
    CPU time for vxc      5.86 sec, wall time      0.21 sec
E1 = -1767.4431546377436  Ecoul = 714.8464259552983  Exc = -70.50495380690468
cycle= 9 E= -748.124992466343  delta_E= -8.34e-09  |g|= 5.51e-05  |ddm|= 0.000182
    CPU time for cycle= 9      6.41 sec, wall time      0.23 sec
  HOMO = -0.261804547073338  LUMO = -0.0370569926557127
  mo_energy =
[-1.01485216e+02 -1.43362804e+01 -1.02244864e+01 -1.02241437e+01
 -1.02124086e+01 -1.02060600e+01 -1.02021361e+01 -1.02019256e+01
 -9.41790894e+00 -7.18076291e+00 -7.17132227e+00 -7.17131121e+00
 -9.46614546e-01 -8.17419689e-01 -8.12646216e-01 -7.76794088e-01
 -6.53934503e-01 -6.40689811e-01 -6.35226668e-01 -5.40598543e-01
 -4.89352534e-01 -4.73704953e-01 -4.43134861e-01 -4.23849417e-01
 -4.21453668e-01 -4.18940161e-01 -4.05533860e-01 -3.81074863e-01
 -3.68722560e-01 -2.94159950e-01 -2.78044650e-01 -2.70787155e-01
 -2.70187652e-01 -2.61804547e-01 -3.70569927e-02 -1.29185096e-02
  5.50793146e-02  8.49168833e-02  1.17824870e-01  1.23607005e-01
  1.41371874e-01  1.46524757e-01  1.56175297e-01  1.72488499e-01
  1.74294664e-01  2.05063585e-01  2.43103681e-01  2.86479407e-01
  3.17978135e-01  3.25715655e-01  4.30937515e-01  4.40905212e-01
  4.52900134e-01  4.82827114e-01  4.83137307e-01  4.86670583e-01
  5.02971326e-01  5.27251326e-01  5.46632652e-01  5.71245487e-01
  5.73819356e-01  5.76464399e-01  5.84400827e-01  5.93650163e-01
  5.95322417e-01  6.02130996e-01  6.21794795e-01  6.48744073e-01
  6.82467284e-01  6.89372071e-01  7.32752569e-01  8.07639681e-01
  8.17587813e-01  8.34722540e-01  8.37171947e-01  8.49994875e-01
  8.81137051e-01  8.83496330e-01  9.00752824e-01  9.17219167e-01
  9.21420018e-01  9.32817204e-01  9.36206151e-01  9.77103934e-01
  9.79766176e-01  9.84623587e-01  1.02190071e+00  1.06897811e+00
  1.08698341e+00  1.11994717e+00  1.16548201e+00  1.20851571e+00
  1.21792835e+00  1.23967637e+00  1.36822328e+00  1.38125339e+00
  1.45518372e+00  1.46701667e+00  1.47816357e+00  1.50186607e+00
  1.50964193e+00  1.51525779e+00  1.70940360e+00  1.71031061e+00
  1.71446098e+00  1.75827954e+00  1.82829772e+00  1.82930152e+00
  1.91856823e+00  1.94354018e+00  2.05882984e+00  2.13899928e+00
  2.14081337e+00  2.16766977e+00  2.17125580e+00  2.18765822e+00
  2.21515130e+00  2.25126990e+00  2.26312980e+00  2.30016334e+00
  2.31615770e+00  2.36919195e+00  2.54080930e+00  2.55219388e+00
  2.67112441e+00  2.69429107e+00  2.69645914e+00  2.73456756e+00
  2.75834901e+00  2.77173794e+00  3.03867975e+00  3.40172250e+00]
nelec by numeric integration = 68.00002394932125
    CPU time for vxc      5.86 sec, wall time      0.21 sec
E1 = -1767.442990999541  Ecoul = 714.846248479885  Exc = -70.50493997047556
cycle= 10 E= -748.124992467124  delta_E= -7.82e-10  |g|= 2.26e-05  |ddm|= 9.38e-05
    CPU time for cycle= 10      6.37 sec, wall time      0.23 sec
  HOMO = -0.261805572018218  LUMO = -0.0370560212852971
  mo_energy =
[-1.01485229e+02 -1.43362846e+01 -1.02244923e+01 -1.02241279e+01
 -1.02124044e+01 -1.02060611e+01 -1.02021455e+01 -1.02019142e+01
 -9.41791972e+00 -7.18077385e+00 -7.17133325e+00 -7.17132220e+00
 -9.46613699e-01 -8.17423562e-01 -8.12645718e-01 -7.76792390e-01
 -6.53935681e-01 -6.40688484e-01 -6.35225477e-01 -5.40597040e-01
 -4.89351101e-01 -4.73703978e-01 -4.43133342e-01 -4.23849860e-01
 -4.21454338e-01 -4.18939440e-01 -4.05532879e-01 -3.81077678e-01
 -3.68721263e-01 -2.94159249e-01 -2.78043050e-01 -2.70791342e-01
 -2.70191681e-01 -2.61805572e-01 -3.70560213e-02 -1.29170483e-02
  5.50774128e-02  8.49167724e-02  1.17824910e-01  1.23607634e-01
  1.41373089e-01  1.46524739e-01  1.56175866e-01  1.72488490e-01
  1.74296846e-01  2.05062944e-01  2.43104358e-01  2.86480430e-01
  3.17979015e-01  3.25716501e-01  4.30935045e-01  4.40906315e-01
  4.52899718e-01  4.82824140e-01  4.83134309e-01  4.86668485e-01
  5.02972581e-01  5.27252075e-01  5.46631591e-01  5.71245454e-01
  5.73820708e-01  5.76465337e-01  5.84402051e-01  5.93651563e-01
  5.95323425e-01  6.02132331e-01  6.21794644e-01  6.48745337e-01
  6.82468100e-01  6.89373162e-01  7.32753103e-01  8.07640834e-01
  8.17588662e-01  8.34723391e-01  8.37173710e-01  8.49994521e-01
  8.81134553e-01  8.83493047e-01  9.00752609e-01  9.17219009e-01
  9.21418982e-01  9.32813384e-01  9.36203980e-01  9.77100678e-01
  9.79765063e-01  9.84623380e-01  1.02190104e+00  1.06897751e+00
  1.08698379e+00  1.11994815e+00  1.16548261e+00  1.20851581e+00
  1.21792632e+00  1.23967789e+00  1.36822478e+00  1.38125371e+00
  1.45518466e+00  1.46701844e+00  1.47816476e+00  1.50186812e+00
  1.50964158e+00  1.51525838e+00  1.70940241e+00  1.71030959e+00
  1.71446171e+00  1.75828070e+00  1.82829884e+00  1.82930249e+00
  1.91856918e+00  1.94354177e+00  2.05883172e+00  2.13900060e+00
  2.14081487e+00  2.16767093e+00  2.17125747e+00  2.18765987e+00
  2.21514958e+00  2.25126945e+00  2.26312931e+00  2.30016441e+00
  2.31615941e+00  2.36919313e+00  2.54081034e+00  2.55219562e+00
  2.67112584e+00  2.69429246e+00  2.69646027e+00  2.73456929e+00
  2.75835052e+00  2.77173898e+00  3.03868102e+00  3.40172398e+00]
nelec by numeric integration = 68.000023949138
    CPU time for vxc      5.83 sec, wall time      0.21 sec
E1 = -1767.443089063867  Ecoul = 714.8463541123401  Exc = -70.50494753831566
Extra cycle  E= -748.124992466835  delta_E= 2.89e-10  |g|= 3.9e-05  |ddm|= 6.2e-05
    CPU time for scf_cycle     88.50 sec, wall time      3.24 sec
    CPU time for SCF     88.50 sec, wall time      3.24 sec
converged SCF energy = -748.124992466835
Converting <class 'pyscf.dft.rks.RKS'> to RHF


******** <class 'pyscf.tdscf.rks.TDA'> for <class 'pyscf.dft.rks.RKS'> ********
nstates = 10 singlet
wfnsym = None
conv_tol = 1e-09
eigh lindep = 1e-12
eigh level_shift = 0
eigh max_space = 50
eigh max_cycle = 100
chkfile = /scratch/global/yangjunjie/tmpy9vuw07d
max_memory 127949 MB (current use 595 MB)


davidson 0 10  |r|= 0.254  e= [0.18058858 0.19936879 0.21420176 0.21429443 0.21708567 0.23892052
 0.23924415 0.28297269 0.36251141 0.3788266 ]  max|de|= 0.379  lindep=    1
Old state -> New state
    4     ->     2 
    2     ->     3 
    3     ->     4 
davidson 1 20  |r|= 0.0478  e= [0.17755006 0.19843145 0.21257661 0.21405882 0.21411618 0.23885705
 0.23897957 0.25203523 0.30266848 0.30802042]  max|de|= -0.0708  lindep= 0.886
davidson 2 30  |r|= 0.0241  e= [0.17741423 0.19839713 0.21242655 0.2140581  0.21408243 0.23885541
 0.23895497 0.2515568  0.30050442 0.30378701]  max|de|= -0.00423  lindep= 0.834
Old state -> New state
    9     ->     8 
    8     ->     9 
davidson 3 40  |r|= 0.0423  e= [0.17741202 0.19839625 0.21242284 0.21405807 0.21408093 0.23885531
 0.23895431 0.25142816 0.29838111 0.30015903]  max|de|= -0.00541  lindep= 0.816
davidson 4 50  |r|= 0.0413  e= [0.17741197 0.1983962  0.21242271 0.21405807 0.21408088 0.2388553
 0.23895424 0.2514166  0.29324956 0.30004117]  max|de|= -0.00513  lindep= 0.767
Old state -> New state
    1     ->     8 
    8     ->     9 
root 0 converged  |r|= 2.86e-06  e= 0.17741196429019238  max|de|= -9.57e-10
root 3 converged  |r|= 1.93e-06  e= 0.2140580718770103  max|de|= -1.98e-10
davidson 5 60  |r|= 0.0532  e= [0.17741196 0.1983962  0.21242271 0.21405807 0.21408087 0.2388553
 0.23895423 0.25141543 0.28298513 0.28483377]  max|de|= 0.0846  lindep= 0.789
root 1 converged  |r|= 7.99e-07  e= 0.19839619938642325  max|de|= -5.71e-11
root 2 converged  |r|= 1.3e-06  e= 0.21242271049792727  max|de|= -6.47e-11
root 4 converged  |r|= 1.91e-06  e= 0.21408087462512126  max|de|= -1.28e-10
root 5 converged  |r|= 3.64e-06  e= 0.23885529493142507  max|de|= -2.78e-10
root 6 converged  |r|= 3.85e-06  e= 0.23895422858576845  max|de|= -3.85e-10
davidson 6 68  |r|= 0.0189  e= [0.17741196 0.1983962  0.21242271 0.21405807 0.21408087 0.23885529
 0.23895423 0.25141537 0.27935182 0.2797808 ]  max|de|= -0.00505  lindep= 0.833
davidson 7 10  |r|= 0.0189  e= [0.17741196 0.1983962  0.21242271 0.21405807 0.21408087 0.23885529
 0.23895423 0.25141537 0.27935182 0.2797808 ]  max|de|= 5e-16  lindep= 0.996
davidson 8 13  |r|= 0.00654  e= [0.17741196 0.1983962  0.21242271 0.21405807 0.21408087 0.23885529
 0.23895423 0.25141537 0.27905991 0.27945995]  max|de|= -0.000321  lindep= 0.773
root 7 converged  |r|= 2.56e-06  e= 0.2514153727336916  max|de|= -1.38e-10
davidson 9 16  |r|= 0.00237  e= [0.17741196 0.1983962  0.21242271 0.21405807 0.21408087 0.23885529
 0.23895423 0.25141537 0.27902502 0.27939347]  max|de|= -6.65e-05  lindep= 0.863
davidson 10 18  |r|= 0.00113  e= [0.17741196 0.1983962  0.21242271 0.21405807 0.21408087 0.23885529
 0.23895423 0.25141537 0.27902058 0.27938191]  max|de|= -1.16e-05  lindep= 0.827
davidson 11 20  |r|= 0.000552  e= [0.17741196 0.1983962  0.21242271 0.21405807 0.21408087 0.23885529
 0.23895423 0.25141537 0.27901954 0.27938012]  max|de|= -1.79e-06  lindep= 0.887
davidson 12 22  |r|= 0.00044  e= [0.17741196 0.1983962  0.21242271 0.21405807 0.21408087 0.23885529
 0.23895423 0.25141537 0.27901926 0.27937954]  max|de|= -5.77e-07  lindep= 0.846
davidson 13 24  |r|= 0.000446  e= [0.17741196 0.1983962  0.21242271 0.21405807 0.21408087 0.23885529
 0.23895423 0.25141537 0.27901914 0.27937903]  max|de|= -5.18e-07  lindep= 0.832
davidson 14 26  |r|= 0.0005  e= [0.17741196 0.1983962  0.21242271 0.21405807 0.21408087 0.23885529
 0.23895423 0.25141537 0.27901896 0.2793785 ]  max|de|= -5.25e-07  lindep= 0.823
davidson 15 28  |r|= 0.000642  e= [0.17741196 0.1983962  0.21242271 0.21405807 0.21408087 0.23885529
 0.23895423 0.25141537 0.27901826 0.27937801]  max|de|= -7.07e-07  lindep= 0.82
davidson 16 30  |r|= 0.00154  e= [0.17741196 0.1983962  0.21242271 0.21405807 0.21408087 0.23885529
 0.23895423 0.25141537 0.27901463 0.27937787]  max|de|= -3.63e-06  lindep= 0.784
Old state -> New state
    8     ->     9 
davidson 17 32  |r|= 0.00645  e= [0.17741196 0.1983962  0.21242271 0.21405807 0.21408087 0.23885529
 0.23895423 0.25141537 0.27899876 0.27912432]  max|de|= 0.00011  lindep= 0.844
davidson 18 34  |r|= 0.00254  e= [0.17741196 0.1983962  0.21242271 0.21405807 0.21408087 0.23885529
 0.23895423 0.25141537 0.27896894 0.27906148]  max|de|= -6.28e-05  lindep= 0.862
davidson 19 36  |r|= 0.00163  e= [0.17741196 0.1983962  0.21242271 0.21405807 0.21408087 0.23885529
 0.23895423 0.25141537 0.27895358 0.27905147]  max|de|= -1.54e-05  lindep= 0.828
davidson 20 38  |r|= 0.000946  e= [0.17741196 0.1983962  0.21242271 0.21405807 0.21408087 0.23885529
 0.23895423 0.25141537 0.27894737 0.27904864]  max|de|= -6.21e-06  lindep= 0.832
davidson 21 40  |r|= 0.000422  e= [0.17741196 0.1983962  0.21242271 0.21405807 0.21408087 0.23885529
 0.23895423 0.25141537 0.27894597 0.27904806]  max|de|= -1.4e-06  lindep= 0.862
davidson 22 42  |r|= 0.000177  e= [0.17741196 0.1983962  0.21242271 0.21405807 0.21408087 0.23885529
 0.23895423 0.25141537 0.27894568 0.27904794]  max|de|= -2.89e-07  lindep= 0.855
davidson 23 44  |r|= 0.000106  e= [0.17741196 0.1983962  0.21242271 0.21405807 0.21408087 0.23885529
 0.23895423 0.25141537 0.27894561 0.27904792]  max|de|= -7e-08  lindep= 0.852
davidson 24 46  |r|= 5.06e-05  e= [0.17741196 0.1983962  0.21242271 0.21405807 0.21408087 0.23885529
 0.23895423 0.25141537 0.2789456  0.27904791]  max|de|= -1.61e-08  lindep= 0.84
davidson 25 48  |r|= 1.87e-05  e= [0.17741196 0.1983962  0.21242271 0.21405807 0.21408087 0.23885529
 0.23895423 0.25141537 0.27894559 0.27904791]  max|de|= -3.03e-09  lindep= 0.865
root 8 converged  |r|= 8.62e-06  e= 0.2789455914836979  max|de|= -5.54e-10
root 9 converged  |r|= 5.47e-06  e= 0.27904790748168945  max|de|= -2.23e-10
converged 26 50  |r|= 8.62e-06  e= [0.17741196 0.1983962  0.21242271 0.21405807 0.21408087 0.23885529
 0.23895423 0.25141537 0.27894559 0.27904791]  max|de|= -5.54e-10
    CPU time for TDA    337.18 sec, wall time     12.22 sec
Excited State energies (eV)
[4.82762544 5.39863557 5.78031637 5.82481682 5.82543732 6.49958363
 6.50227575 6.84136076 7.59049617 7.59328033]
Converting <class 'pyscf.dft.rks.RKS'> to RHF


******** <class 'pyscf.tdscf.rks.TDDFT'> for <class 'pyscf.dft.rks.RKS'> ********
nstates = 10 singlet
wfnsym = None
conv_tol = 1e-09
eigh lindep = 1e-12
eigh level_shift = 0
eigh max_space = 50
eigh max_cycle = 100
chkfile = /scratch/global/yangjunjie/tmpy9vuw07d
max_memory 127949 MB (current use 661 MB)


davidson 0 10  |r|=  0.4  e= [0.18058858 0.19936879 0.21420176 0.21429443 0.21708567 0.23892052
 0.23924415 0.28297269 0.36251141 0.3788266 ]  max|de|= 0.379  lindep=    1
Old state -> New state
    9     ->     0 
    8     ->     1 
    0     ->     2 
    1     ->     3 
    7     ->     4 
    4     ->     5 
    2     ->     6 
    3     ->     7 
    0     ->     8 
    5     ->     9 
davidson 1 20  |r|= 0.743  e= [0.06630515 0.07215909 0.17319187 0.19795347 0.20621285 0.21036544
 0.21404487 0.21412981 0.21938148 0.23884958]  max|de|= -0.313  lindep= 0.132
Old state -> New state
    5     ->     0 
    0     ->     1 
    2     ->     3 
    3     ->     4 
    7     ->     6 
    6     ->     7 
    0     ->     8 
    4     ->     9 
davidson 2 30  |r|= 1.59  e= [0.01862794 0.09035268 0.13518823 0.17559199 0.19809815 0.20961244
 0.21383193 0.21405439 0.22224631 0.23873025]  max|de|= -0.192  lindep= 0.163
Old state -> New state
    3     ->     0 
    4     ->     1 
    5     ->     2 
    6     ->     3 
    7     ->     4 
    2     ->     5 
    9     ->     6 
    2     ->     7 
    5     ->     9 
davidson 3 40  |r|= 1.03  e= [0.1755087  0.19821627 0.20967956 0.21390764 0.21405914 0.22859956
 0.23877673 0.23885175 0.24159362 0.27964308]  max|de|= 0.104  lindep= 0.187
Old state -> New state
    5     ->     0 
    0     ->     1 
    1     ->     2 
    2     ->     3 
    2     ->     4 
    3     ->     5 
    4     ->     6 
    6     ->     7 
    7     ->     8 
    8     ->     9 
davidson 4 50  |r|= 1.43  e= [0.04364147 0.17548832 0.19818784 0.20118622 0.21006277 0.21392154
 0.21405598 0.23877727 0.23885342 0.24195406]  max|de|= -0.185  lindep= 0.116
Old state -> New state
    1     ->     0 
    4     ->     3 
    5     ->     4 
    6     ->     5 
    4     ->     6 
davidson 5 60  |r|=  1.3  e= [0.11575521 0.1754962  0.19818227 0.21027862 0.21391921 0.21405616
 0.22393758 0.23873362 0.23885311 0.24200868]  max|de|= -0.0597  lindep= 0.175
Old state -> New state
    0     ->     1 
    1     ->     2 
    2     ->     3 
    3     ->     4 
    4     ->     5 
    5     ->     6 
    9     ->     7 
    7     ->     8 
    8     ->     9 
davidson 6 70  |r|= 1.29  e= [0.0719535  0.11102831 0.17549884 0.19818547 0.20982964 0.21391713
 0.21405612 0.23806766 0.23880818 0.23885326]  max|de|= -0.0438  lindep= 0.066
Old state -> New state
    7     ->     1 
    2     ->     3 
    3     ->     4 
    4     ->     5 
    5     ->     6 
    6     ->     7 
davidson 7 80  |r|=  1.3  e= [0.06944078 0.12186375 0.16404095 0.17549542 0.19818563 0.20982971
 0.213917   0.21405609 0.23878846 0.23885331]  max|de|= -0.116  lindep= 0.0111
davidson 8 10  |r|=  1.3  e= [0.06944078 0.12186375 0.16404095 0.17549542 0.19818563 0.20982971
 0.213917   0.21405609 0.23878846 0.23885331]  max|de|= -3.89e-16  lindep= 0.157
Old state -> New state
    3     ->     2 
    1     ->     4 
    4     ->     5 
    5     ->     6 
    6     ->     7 
    7     ->     8 
    8     ->     9 
davidson 9 20  |r|= 1.47  e= [0.06867764 0.14411455 0.14818047 0.17549274 0.17814015 0.19818548
 0.20983333 0.21391605 0.21405611 0.2387897 ]  max|de|= 0.0563  lindep= 0.0213
Old state -> New state
    0     ->     1 
    3     ->     2 
    5     ->     3 
    6     ->     4 
    7     ->     5 
    8     ->     6 
    9     ->     7 
    9     ->     8 
davidson 10 30  |r|= 1.42  e= [0.04946139 0.12002235 0.17548934 0.19818568 0.20984062 0.21391651
 0.21405614 0.23885348 0.23888617 0.24017811]  max|de|= 0.0513  lindep= 0.118
Old state -> New state
    2     ->     1 
    3     ->     4 
    4     ->     5 
    5     ->     6 
    6     ->     7 
    7     ->     9 
davidson 11 40  |r|= 1.34  e= [0.04671889 0.12684211 0.17549831 0.19739811 0.1981983  0.20982445
 0.21391731 0.21405605 0.2387872  0.23885328]  max|de|= -0.0486  lindep= 0.0402
Old state -> New state
    5     ->     0 
    0     ->     1 
    4     ->     3 
    5     ->     4 
    5     ->     8 
    8     ->     9 
davidson 12 50  |r|= 1.34  e= [0.10129077 0.11009653 0.17549068 0.19818534 0.20960379 0.20982636
 0.21391603 0.21405601 0.22375344 0.23878249]  max|de|= -0.109  lindep= 0.131
Old state -> New state
    1     ->     0 
    2     ->     1 
    5     ->     4 
    6     ->     5 
    7     ->     6 
    9     ->     7 
    1     ->     8 
    4     ->     9 
davidson 13 60  |r|= 1.35  e= [0.10971871 0.14203862 0.17548864 0.1981854  0.2099595  0.21392432
 0.21405615 0.23878862 0.23885329 0.2898352 ]  max|de|= 0.129  lindep= 0.0148
Old state -> New state
    1     ->     0 
    2     ->     1 
    3     ->     2 
    4     ->     3 
    5     ->     4 
    6     ->     5 
    5     ->     6 
davidson 14 70  |r|= 1.13  e= [0.03648864 0.17549154 0.19818498 0.20982942 0.21391662 0.21405617
 0.21594445 0.23878825 0.2388533  0.25605719]  max|de|= -0.106  lindep= 0.157
Old state -> New state
    9     ->     1 
    9     ->     2 
    1     ->     3 
    9     ->     4 
    2     ->     5 
    3     ->     6 
    4     ->     7 
    5     ->     8 
    7     ->     9 
davidson 15 80  |r|= 1.12  e= [0.03607035 0.07681103 0.11582376 0.17549163 0.19005626 0.19818485
 0.20982912 0.21391722 0.21405614 0.23878832]  max|de|= -0.179  lindep= 0.0272
root 6 converged  |r|= 2.89e-05  e= 0.2098291233144322  max|de|= -1.67e-16
root 7 converged  |r|= 3.13e-05  e= 0.21391722046190753  max|de|= 1.67e-16
root 8 converged  |r|= 2.91e-05  e= 0.21405613819463942  max|de|= 2.78e-17
root 9 converged  |r|= 2.9e-05  e= 0.23878832385177942  max|de|=    0
davidson 16 10  |r|= 1.12  e= [0.03607035 0.07681103 0.11582376 0.17549163 0.19005626 0.19818485
 0.20982912 0.21391722 0.21405614 0.23878832]  max|de|= 2.02e-14  lindep= 0.277
Old state -> New state
    0     ->     1 
    0     ->     2 
    1     ->     3 
    1     ->     4 
    3     ->     5 
    5     ->     6 
    6     ->     7 
    7     ->     8 
    8     ->     9 
davidson 17 16  |r|= 1.38  e= [0.02067359 0.03217782 0.0529767  0.0891271  0.09640201 0.17549196
 0.19818491 0.20982903 0.2139171  0.21405613]  max|de|= 0.0196  lindep= 0.0617
Old state -> New state
    2     ->     0 
    2     ->     1 
    5     ->     2 
    5     ->     3 
    6     ->     4 
    7     ->     5 
    8     ->     6 
    9     ->     7 
    7     ->     8 
    0     ->     9 
davidson 18 26  |r|= 1.12  e= [0.08672312 0.09557522 0.17549425 0.18130887 0.198185   0.20982929
 0.21391741 0.21405614 0.22214073 0.23878926]  max|de|= 0.218  lindep= 0.357
Old state -> New state
    3     ->     0 
    0     ->     1 
    1     ->     2 
    2     ->     3 
    4     ->     5 
    5     ->     6 
    6     ->     7 
    7     ->     8 
davidson 19 36  |r|= 1.28  e= [0.03821697 0.05842966 0.10782577 0.17549151 0.19650919 0.19818481
 0.20982893 0.21391722 0.21405613 0.23878746]  max|de|= -0.143  lindep= 0.109
Old state -> New state
    1     ->     0 
    0     ->     1 
    3     ->     2 
    5     ->     3 
    6     ->     4 
    6     ->     5 
    7     ->     6 
    8     ->     7 
    9     ->     8 
root 7 converged  |r|= 2.84e-05  e= 0.21405613413991628  max|de|= -3.3e-11
davidson 20 46  |r|= 1.43  e= [0.02785105 0.03833196 0.17549141 0.198185   0.20726087 0.20982899
 0.21391729 0.21405613 0.23878737 0.24247379]  max|de|= -0.0306  lindep= 0.147
Old state -> New state
    9     ->     2 
    2     ->     3 
    3     ->     4 
    5     ->     6 
    6     ->     7 
    7     ->     8 
    8     ->     9 
davidson 21 55  |r|= 1.29  e= [0.03092869 0.0694182  0.13130563 0.17549134 0.19818495 0.20982896
 0.2123082  0.21391721 0.21405613 0.23878773]  max|de|= -0.111  lindep= 0.0624
Old state -> New state
    3     ->     0 
    3     ->     1 
    4     ->     2 
    5     ->     3 
    7     ->     4 
    8     ->     5 
    2     ->     6 
    9     ->     7 
    0     ->     8 
    1     ->     9 
root 2 converged  |r|= 1.98e-06  e= 0.1981849547578095  max|de|= 4.01e-10
davidson 22 64  |r|= 1.13  e= [0.15414969 0.17549139 0.19818495 0.20982907 0.21391722 0.21405613
 0.23511221 0.23878827 0.25198227 0.26618663]  max|de|= 0.221  lindep= 0.198
Old state -> New state
    1     ->     0 
    0     ->     1 
    1     ->     2 
    2     ->     3 
    3     ->     4 
    4     ->     5 
    5     ->     6 
    6     ->     8 
    8     ->     9 
root 5 converged  |r|= 1.99e-06  e= 0.21391721938500105  max|de|= -4.08e-10
davidson 23 72  |r|= 1.36  e= [0.09487849 0.15738165 0.17549142 0.19818495 0.20982906 0.21391722
 0.21405613 0.23878841 0.24061653 0.25552233]  max|de|= -0.0806  lindep= 0.105
Old state -> New state
    8     ->     0 
    2     ->     1 
    3     ->     2 
    4     ->     3 
davidson 24 80  |r|=    1  e= [0.15421896 0.17549135 0.19818495 0.20982931 0.21194929 0.2139172
 0.21405613 0.23878832 0.24371493 0.27999184]  max|de|= -0.0864  lindep= 0.157
root 1 converged  |r|= 5.16e-07  e= 0.17549134833674035  max|de|= 1.02e-14
root 2 converged  |r|= 2.69e-07  e= 0.19818495221994603  max|de|= 7.49e-16
root 3 converged  |r|= 2.39e-05  e= 0.20982931406587016  max|de|= -3.08e-14
root 5 converged  |r|= 9.62e-06  e= 0.2139171965069848  max|de|= 2.22e-16
davidson 25 10  |r|=    1  e= [0.15421896 0.17549135 0.19818495 0.20982931 0.21194929 0.2139172
 0.21405613 0.23878832 0.24371493 0.27999184]  max|de|= -1.08e-13  lindep=  0.4
Old state -> New state
    3     ->     0 
    0     ->     1 
    0     ->     2 
    1     ->     3 
    2     ->     4 
    3     ->     5 
    5     ->     6 
    6     ->     7 
    7     ->     8 
    7     ->     9 
davidson 26 15  |r|=  1.6  e= [0.0386064  0.14855313 0.16019836 0.17549135 0.19818495 0.20982904
 0.21391721 0.21405613 0.23879156 0.23916724]  max|de|= -0.171  lindep= 0.244
Old state -> New state
    3     ->     1 
    4     ->     2 
    5     ->     3 
    6     ->     4 
    7     ->     5 
    8     ->     6 
    9     ->     7 
    1     ->     8 
    2     ->     9 
root 1 converged  |r|= 1.02e-07  e= 0.17549135238641456  max|de|= -6.36e-10
root 4 converged  |r|= 7.86e-08  e= 0.21391721515199402  max|de|= 3.4e-10
davidson 27 20  |r|= 1.59  e= [0.06741079 0.17549135 0.19818495 0.20982905 0.21391722 0.21405613
 0.23878833 0.24217323 0.27047835 0.27753556]  max|de|= 0.122  lindep= 0.0852
Old state -> New state
    8     ->     1 
    1     ->     2 
    2     ->     3 
    3     ->     4 
    4     ->     5 
    5     ->     6 
    6     ->     7 
    7     ->     8 
davidson 28 25  |r|= 1.32  e= [0.11826493 0.13973974 0.17549135 0.19818495 0.20982905 0.21391722
 0.21405613 0.2387883  0.24186655 0.27890225]  max|de|= -0.131  lindep= 0.273
Old state -> New state
    0     ->     1 
davidson 29 30  |r|= 1.42  e= [0.05257526 0.06514015 0.17549135 0.19818495 0.20982905 0.21391722
 0.21405613 0.23878831 0.24204311 0.26099398]  max|de|= -0.0657  lindep= 0.182
Old state -> New state
    0     ->     1 
    4     ->     5 
    5     ->     6 
    6     ->     7 
    7     ->     8 
    8     ->     9 
davidson 30 35  |r|= 1.23  e= [0.01656526 0.0341053  0.17549135 0.19818495 0.20674888 0.20982908
 0.21391721 0.21405613 0.23878829 0.24174619]  max|de|= -0.036  lindep= 0.131
Old state -> New state
    9     ->     0 
    9     ->     1 
    5     ->     4 
    6     ->     5 
    7     ->     6 
    8     ->     7 
    9     ->     8 
    4     ->     9 
davidson 31 41  |r|= 1.19  e= [0.10246255 0.15008151 0.17549135 0.19818495 0.20982905 0.21391722
 0.21405613 0.23878833 0.24209345 0.27911714]  max|de|= -0.139  lindep= 0.205
Old state -> New state
    1     ->     0 
    0     ->     1 
    0     ->     2 
    2     ->     3 
    3     ->     4 
    4     ->     5 
    5     ->     6 
    6     ->     7 
    7     ->     9 
davidson 32 46  |r|= 1.41  e= [0.02837571 0.11446957 0.13057932 0.17549135 0.19818495 0.20982905
 0.21391722 0.21405613 0.23072244 0.23878839]  max|de|= -0.122  lindep= 0.15
Old state -> New state
    3     ->     1 
    4     ->     2 
    5     ->     3 
    6     ->     4 
    7     ->     5 
    9     ->     6 
    8     ->     7 
    1     ->     8 
    2     ->     9 
root 1 converged  |r|= 4.31e-08  e= 0.17549135154367546  max|de|= 3.42e-10
davidson 33 51  |r|= 1.27  e= [0.02277221 0.17549135 0.19818495 0.20982905 0.21391722 0.21405613
 0.23878834 0.24197715 0.25245601 0.2770873 ]  max|de|= 0.147  lindep= 0.175
Old state -> New state
    0     ->     1 
    1     ->     2 
    1     ->     3 
    2     ->     4 
    3     ->     5 
    4     ->     6 
    5     ->     7 
    6     ->     8 
    7     ->     9 
root 5 converged  |r|= 4.93e-08  e= 0.20982905316383765  max|de|= -3.45e-10
davidson 34 56  |r|= 1.15  e= [0.02976007 0.04688301 0.17549135 0.18530733 0.19818495 0.20982905
 0.21391722 0.21405613 0.23878834 0.2419293 ]  max|de|= 0.0241  lindep= 0.0457
Old state -> New state
    1     ->     0 
    9     ->     1 
    4     ->     3 
    5     ->     4 
    6     ->     5 
    7     ->     6 
    8     ->     7 
    9     ->     8 
root 7 converged  |r|= 5.14e-07  e= 0.2387883422531379  max|de|= 3.42e-10
davidson 35 60  |r|= 1.31  e= [0.04302498 0.11310783 0.17549135 0.19818495 0.20982905 0.21391722
 0.21405613 0.23878834 0.24189428 0.25902689]  max|de|= -0.129  lindep= 0.0587
Old state -> New state
    8     ->     0 
    2     ->     1 
    3     ->     2 
    4     ->     3 
    5     ->     4 
    6     ->     5 
    7     ->     6 
    8     ->     7 
root 1 converged  |r|= 3.94e-08  e= 0.175491351269083  max|de|= 2.44e-10
davidson 36 64  |r|= 1.17  e= [0.03604538 0.17549135 0.19818495 0.20982905 0.21391722 0.21405613
 0.23878834 0.24062045 0.24195313 0.27683922]  max|de|= -0.206  lindep= 0.0752
Old state -> New state
    0     ->     1 
    1     ->     2 
    2     ->     3 
    3     ->     4 
    4     ->     5 
    5     ->     6 
    6     ->     7 
    8     ->     9 
davidson 37 68  |r|= 1.14  e= [0.00727759 0.16893003 0.17549135 0.19818495 0.20982905 0.21391722
 0.21405613 0.23878834 0.24130656 0.2419853 ]  max|de|= 0.133  lindep= 0.0529
Old state -> New state
    2     ->     0 
    3     ->     1 
    4     ->     2 
    5     ->     3 
    6     ->     4 
    9     ->     5 
    7     ->     6 
    9     ->     7 
    9     ->     8 
    1     ->     9 
davidson 38 72  |r|= 0.538  e= [0.17549135 0.19818495 0.20982905 0.21391722 0.21405613 0.22697175
 0.23878834 0.24180944 0.24395291 0.27765091]  max|de|= 0.109  lindep= 0.205
Old state -> New state
    5     ->     0 
    0     ->     1 
    1     ->     2 
    2     ->     3 
    3     ->     4 
    4     ->     5 
    5     ->     7 
    7     ->     8 
root 6 converged  |r|= 3.26e-07  e= 0.23878834226225024  max|de|= 6.22e-10
davidson 39 76  |r|= 1.27  e= [0.07836316 0.17549135 0.19818495 0.20982905 0.21391722 0.21405613
 0.23878834 0.23912547 0.24192433 0.27763756]  max|de|= -0.149  lindep= 0.132
Old state -> New state
    1     ->     0 
    2     ->     1 
    3     ->     2 
    4     ->     3 
    5     ->     4 
    6     ->     5 
    8     ->     7 
    9     ->     8 
davidson 40 80  |r|= 0.0993  e= [0.17549135 0.19818495 0.20982905 0.21391722 0.21405613 0.23878837
 0.23879915 0.24191683 0.27728578 0.27805649]  max|de|= 0.000419  lindep= 0.413
root 5 converged  |r|= 1.74e-05  e= 0.23878837351556714  max|de|= 3.52e-13
davidson 41 10  |r|= 0.0993  e= [0.17549135 0.19818495 0.20982905 0.21391722 0.21405613 0.23878837
 0.23879915 0.24191683 0.27728578 0.27805649]  max|de|= 7.27e-13  lindep= 0.988
Old state -> New state
    1     ->     2 
    2     ->     3 
    3     ->     4 
    4     ->     5 
    5     ->     6 
    5     ->     7 
    7     ->     8 
    8     ->     9 
davidson 42 14  |r|= 0.496  e= [0.17549135 0.19818495 0.20093099 0.20982906 0.21391722 0.21405613
 0.23878834 0.23889202 0.24190908 0.27827282]  max|de|= 0.00275  lindep= 0.373
Old state -> New state
    0     ->     1 
    1     ->     2 
    6     ->     7 
    8     ->     9 
davidson 43 19  |r|= 1.39  e= [0.05509501 0.17549135 0.19818495 0.20982905 0.21391722 0.21405613
 0.23878834 0.23886862 0.24191666 0.27273875]  max|de|= -0.12  lindep= 0.213
Old state -> New state
    3     ->     2 
    2     ->     3 
    3     ->     4 
    4     ->     5 
    5     ->     6 
    6     ->     7 
    7     ->     8 
    8     ->     9 
root 1 converged  |r|= 2.27e-07  e= 0.1754913521949047  max|de|= -5.27e-10
root 3 converged  |r|= 9.19e-08  e= 0.1981849530012128  max|de|= -1.81e-10
root 4 converged  |r|= 5e-08  e= 0.20982905349962386  max|de|= 1.18e-10
davidson 44 23  |r|= 1.48  e= [0.10614585 0.17549135 0.18598089 0.19818495 0.20982905 0.21391722
 0.21405613 0.23878834 0.23885757 0.24192019]  max|de|= 0.0511  lindep= 0.152
Old state -> New state
    3     ->     2 
    4     ->     3 
    5     ->     4 
    6     ->     5 
    7     ->     6 
    9     ->     8 
davidson 45 27  |r|= 1.36  e= [0.04718853 0.17549135 0.19818495 0.20982905 0.21391722 0.21405613
 0.23878835 0.23885385 0.24192699 0.25563244]  max|de|= -0.059  lindep= 0.211
Old state -> New state
    0     ->     1 
    1     ->     2 
    2     ->     3 
    3     ->     4 
    4     ->     5 
    5     ->     6 
    6     ->     7 
    7     ->     8 
    8     ->     9 
davidson 46 31  |r|= 1.38  e= [0.00471554 0.11736805 0.17549135 0.19818495 0.20982905 0.21391722
 0.21405613 0.23878834 0.23885569 0.24191458]  max|de|= 0.0702  lindep= 0.131
Old state -> New state
    0     ->     1 
root 7 converged  |r|= 1.64e-07  e= 0.2387883420364788  max|de|= 1.76e-10
davidson 47 35  |r|= 1.62  e= [0.00232447 0.03632251 0.17549135 0.19818495 0.20982905 0.21391722
 0.21405613 0.23878834 0.23885608 0.24191354]  max|de|= 0.0316  lindep= 0.064
Old state -> New state
    2     ->     0 
    2     ->     1 
    3     ->     2 
    4     ->     3 
    5     ->     4 
    6     ->     5 
    7     ->     6 
    8     ->     7 
    9     ->     8 
    1     ->     9 
davidson 48 39  |r|= 0.797  e= [0.16321849 0.17549135 0.19818495 0.20982905 0.21391722 0.21405613
 0.23878834 0.23885435 0.24191456 0.27775621]  max|de|= 0.241  lindep= 0.187
Old state -> New state
    0     ->     1 
    1     ->     2 
    2     ->     3 
    3     ->     4 
    4     ->     5 
    5     ->     6 
    6     ->     7 
    7     ->     8 
    8     ->     9 
davidson 49 43  |r|= 0.886  e= [0.13617475 0.15785996 0.17549135 0.19818495 0.20982905 0.21391722
 0.21405613 0.23878834 0.23885396 0.24191329]  max|de|= -0.027  lindep= 0.0834
Old state -> New state
    1     ->     0 
    0     ->     1 
    9     ->     2 
    2     ->     3 
    3     ->     4 
    4     ->     5 
    5     ->     6 
    6     ->     7 
    7     ->     8 
    8     ->     9 
root 8 converged  |r|= 7.02e-08  e= 0.2387883423329308  max|de|= 9.58e-11
davidson 50 47  |r|= 1.04  e= [0.00895284 0.12862231 0.16377106 0.17549135 0.19818495 0.20982905
 0.21391722 0.21405613 0.23878834 0.23885327]  max|de|= -0.149  lindep= 0.16
Old state -> New state
    3     ->     1 
    4     ->     2 
    5     ->     3 
    6     ->     4 
    7     ->     5 
    8     ->     6 
    9     ->     7 
    2     ->     8 
    1     ->     9 
davidson 51 51  |r|=  1.4  e= [0.12193204 0.17549135 0.19818495 0.20982905 0.21391722 0.21405613
 0.23878834 0.2388532  0.24191474 0.27735076]  max|de|= 0.149  lindep= 0.125
Old state -> New state
    1     ->     0 
    2     ->     1 
    8     ->     2 
davidson 52 55  |r|= 0.885  e= [0.17549135 0.19818495 0.20365309 0.20982905 0.21391722 0.21405613
 0.23878834 0.23885331 0.24191486 0.27727492]  max|de|= -0.0383  lindep= 0.189
Old state -> New state
    8     ->     0 
    0     ->     1 
    1     ->     2 
davidson 53 59  |r|=  1.1  e= [0.09135411 0.17549135 0.19818495 0.20982905 0.21391722 0.21405613
 0.23878834 0.23885324 0.24191469 0.27731569]  max|de|= -0.151  lindep= 0.159
Old state -> New state
    3     ->     2 
    2     ->     3 
    3     ->     4 
    4     ->     5 
    5     ->     6 
    6     ->     7 
    7     ->     8 
    8     ->     9 
davidson 54 63  |r|= 1.01  e= [0.08569734 0.17549135 0.1887598  0.19818495 0.20982905 0.21391722
 0.21405613 0.23878834 0.23885333 0.24191455]  max|de|= -0.0211  lindep= 0.0406
Old state -> New state
    0     ->     1 
    1     ->     2 
    9     ->     7 
    7     ->     8 
    8     ->     9 
root 4 converged  |r|= 2.85e-08  e= 0.2098290539884043  max|de|= -9.37e-10
davidson 55 67  |r|= 1.31  e= [0.03974181 0.08311968 0.17549135 0.19818495 0.20982905 0.21391722
 0.21405613 0.22865921 0.23878834 0.23885331]  max|de|= -0.046  lindep= 0.0808
Old state -> New state
    2     ->     1 
    8     ->     7 
    9     ->     8 
    7     ->     9 
davidson 56 71  |r|= 1.27  e= [0.02778912 0.16259411 0.17549135 0.19818495 0.20982905 0.21391722
 0.21405613 0.23878834 0.2388533  0.24191458]  max|de|= 0.0133  lindep= 0.0344
Old state -> New state
    2     ->     1 
    0     ->     2 
davidson 57 75  |r|= 1.31  e= [0.02037744 0.17549135 0.18366553 0.19818495 0.20982905 0.21391722
 0.21405613 0.23878834 0.23885331 0.24191457]  max|de|= 0.156  lindep= 0.0205
Old state -> New state
    0     ->     1 
    1     ->     2 
    4     ->     7 
    7     ->     8 
    8     ->     9 
davidson 58 78  |r|= 1.35  e= [0.01395044 0.05981827 0.17549135 0.19818495 0.20982906 0.21391722
 0.21405613 0.22105134 0.23878834 0.2388533 ]  max|de|= 0.0394  lindep= 0.0388
root 4 converged  |r|= 1.23e-07  e= 0.20982905450334638  max|de|= -7.1e-10
davidson 59 10  |r|= 1.35  e= [0.01395044 0.05981827 0.17549135 0.19818495 0.20982905 0.21391722
 0.21405613 0.22105134 0.23878834 0.2388533 ]  max|de|= -7.1e-10  lindep= 0.233
Old state -> New state
    0     ->     1 
    8     ->     7 
    9     ->     8 
    1     ->     9 
davidson 60 14  |r|= 1.43  e= [0.0097618  0.07977561 0.17549135 0.19818495 0.20982905 0.21391722
 0.21405613 0.23878834 0.23885331 0.2453326 ]  max|de|= 0.186  lindep= 0.0545
Old state -> New state
    2     ->     1 
    3     ->     2 
    4     ->     3 
    5     ->     4 
    6     ->     5 
    7     ->     6 
    8     ->     7 
    1     ->     8 
root 7 converged  |r|= 1.52e-05  e= 0.23885331088973663  max|de|= -7.39e-10
davidson 61 18  |r|= 1.33  e= [0.06703653 0.17549135 0.19818495 0.20982905 0.21391722 0.21405613
 0.23878834 0.23885331 0.42710724]  max|de|= 0.347  lindep= 0.239
Old state -> New state
    8     ->     9 
davidson 62 20  |r|= 1.52  e= [0.04920106 0.17549135 0.19818495 0.20982905 0.21391722 0.21405613
 0.23878834 0.23885331 0.30354708 0.36668188]  max|de|= -0.124  lindep= 0.129
Old state -> New state
    1     ->     2 
    2     ->     3 
    3     ->     4 
    4     ->     5 
    5     ->     6 
    6     ->     7 
    7     ->     8 
davidson 63 23  |r|= 1.49  e= [0.03306793 0.16830678 0.17549135 0.19818495 0.20982905 0.21391722
 0.21405613 0.23878834 0.23885331 0.30942373]  max|de|= -0.0573  lindep= 0.156
Old state -> New state
    2     ->     1 
davidson 64 26  |r|= 1.23  e= [0.02905565 0.14595145 0.17549135 0.19818495 0.20982905 0.21391722
 0.21405613 0.23878834 0.23885331 0.30732185]  max|de|= -0.0295  lindep= 0.141
Old state -> New state
    2     ->     1 
davidson 65 29  |r|= 1.14  e= [0.01788362 0.1654867  0.17549135 0.19818495 0.20982905 0.21391722
 0.21405613 0.23878834 0.23885331 0.26616461]  max|de|= -0.0412  lindep= 0.0821
Old state -> New state
    2     ->     0 
    3     ->     1 
    4     ->     2 
    5     ->     3 
    6     ->     4 
    0     ->     5 
    7     ->     6 
    8     ->     7 
    9     ->     8 
    1     ->     9 
davidson 66 32  |r|= 0.651  e= [0.17549135 0.19818495 0.20982905 0.21391722 0.21405613 0.22098307
 0.23878834 0.23885331 0.28820137 0.41581173]  max|de|= 0.25  lindep= 0.351
Old state -> New state
    0     ->     1 
    1     ->     2 
    2     ->     3 
    2     ->     4 
    3     ->     5 
    4     ->     6 
    6     ->     7 
    7     ->     8 
    5     ->     9 
root 8 converged  |r|= 8.31e-06  e= 0.23885330841136898  max|de|= -9.53e-10
davidson 67 36  |r|= 0.906  e= [0.15141152 0.17549135 0.19818495 0.20982902 0.20991087 0.21391721
 0.21405613 0.23878834 0.23885331 0.25577619]  max|de|= 0.0348  lindep= 0.201
Old state -> New state
    9     ->     0 
    3     ->     4 
davidson 68 40  |r|= 1.37  e= [0.12843304 0.17549135 0.19818495 0.19851479 0.20982905 0.21391722
 0.21405613 0.23878834 0.23885331 0.24298068]  max|de|= -0.127  lindep= 0.204
Old state -> New state
    3     ->     0 
    3     ->     2 
    2     ->     3 
root 4 converged  |r|= 4.98e-08  e= 0.20982905398848395  max|de|= -6.71e-10
davidson 69 43  |r|= 1.32  e= [0.07131887 0.17549135 0.19193979 0.19818495 0.20982905 0.21391722
 0.21405613 0.23878834 0.23885331 0.2508698 ]  max|de|= -0.127  lindep= 0.209
Old state -> New state
    1     ->     0 
    3     ->     1 
    3     ->     2 
    4     ->     3 
    5     ->     4 
    6     ->     5 
    7     ->     6 
    8     ->     7 
    9     ->     8 
    2     ->     9 
root 7 converged  |r|= 9.89e-06  e= 0.23885330936385202  max|de|= 8.24e-11
davidson 70 47  |r|= 0.674  e= [0.17549135 0.19818495 0.20099049 0.20982905 0.21391722 0.21405613
 0.23878834 0.23885331 0.24177971 0.28265568]  max|de|= 0.0907  lindep= 0.15
Old state -> New state
    2     ->     0 
    0     ->     1 
    0     ->     2 
    1     ->     3 
    3     ->     4 
    4     ->     5 
    5     ->     6 
    6     ->     7 
    7     ->     8 
    8     ->     9 
davidson 71 50  |r|= 1.19  e= [0.08178583 0.14537027 0.17549135 0.19818495 0.20982905 0.21391722
 0.21405613 0.23878834 0.23885331 0.24200673]  max|de|= -0.119  lindep= 0.158
Old state -> New state
    2     ->     1 
    3     ->     2 
    4     ->     3 
    5     ->     4 
    6     ->     5 
    7     ->     6 
    8     ->     7 
    9     ->     8 
    0     ->     9 
davidson 72 53  |r|= 0.949  e= [0.07866177 0.17549135 0.19818495 0.20982905 0.21391722 0.21405613
 0.23878834 0.23885331 0.242091   0.28238746]  max|de|= 0.201  lindep= 0.0752
Old state -> New state
    0     ->     1 
    0     ->     2 
    1     ->     3 
    2     ->     4 
    3     ->     5 
    4     ->     6 
    5     ->     7 
    6     ->     8 
    7     ->     9 
davidson 73 56  |r|= 1.18  e= [0.0291128  0.07737126 0.11161296 0.17549135 0.19818495 0.20982905
 0.21391722 0.21405613 0.23878834 0.23885331]  max|de|= -0.0495  lindep= 0.158
Old state -> New state
    3     ->     1 
    4     ->     2 
    5     ->     3 
    5     ->     4 
    6     ->     5 
    7     ->     6 
    8     ->     7 
    9     ->     8 
    2     ->     9 
davidson 74 59  |r|= 1.24  e= [0.00215758 0.17549135 0.19818495 0.20982905 0.21245432 0.21391721
 0.21405613 0.23878834 0.23885331 0.24203222]  max|de|= 0.13  lindep= 0.0393
Old state -> New state
    1     ->     0 
    2     ->     1 
    3     ->     2 
    5     ->     3 
    6     ->     4 
    7     ->     5 
    8     ->     6 
    9     ->     7 
    0     ->     8 
    0     ->     9 
davidson 75 62  |r|= 0.588  e= [0.17549135 0.19818495 0.20982905 0.21391722 0.21405613 0.23878834
 0.23885331 0.24229954 0.26361365 0.27948464]  max|de|= 0.277  lindep= 0.28
Old state -> New state
    8     ->     0 
    0     ->     1 
    1     ->     2 
    1     ->     3 
    2     ->     4 
    3     ->     5 
    4     ->     6 
    5     ->     7 
    6     ->     8 
    7     ->     9 
davidson 76 66  |r|= 1.22  e= [0.03690253 0.17549135 0.19769908 0.19818495 0.20982905 0.21391722
 0.21405613 0.23878834 0.23885331 0.24197124]  max|de|= -0.227  lindep= 0.154
Old state -> New state
    0     ->     1 
    1     ->     2 
root 8 converged  |r|= 8.99e-07  e= 0.2388533094451811  max|de|= -2.92e-10
davidson 77 70  |r|= 1.34  e= [0.01435747 0.06159923 0.17549135 0.19818495 0.20982905 0.21391722
 0.21405613 0.23878834 0.23885331 0.24201529]  max|de|= 0.0247  lindep= 0.098
Old state -> New state
    2     ->     0 
    3     ->     1 
    3     ->     2 
    4     ->     3 
    5     ->     4 
    6     ->     5 
    7     ->     6 
    8     ->     7 
    9     ->     8 
    1     ->     9 
davidson 78 73  |r|= 0.39  e= [0.17549135 0.19711181 0.19818495 0.20982905 0.21391722 0.21405613
 0.23878834 0.23885331 0.24190166 0.2783334 ]  max|de|= 0.217  lindep= 0.165
Old state -> New state
    8     ->     9 
davidson 79 76  |r|= 0.873  e= [0.17549135 0.19696597 0.19818495 0.20982905 0.21391722 0.21405613
 0.23878834 0.23885331 0.24186402 0.26478419]  max|de|= 0.0229  lindep= 0.0106
Old state -> New state
    1     ->     0 
    0     ->     1 
    1     ->     9 
davidson 80 79  |r|= 1.13  e= [0.14959472 0.17549135 0.19818495 0.20982905 0.21391722 0.21405613
 0.23878834 0.23885331 0.2417344  0.27015406]  max|de|= 0.0732  lindep= 0.107
davidson 81 10  |r|= 1.13  e= [0.14959472 0.17549135 0.19818495 0.20982905 0.21391722 0.21405613
 0.23878834 0.23885331 0.2417344  0.27015406]  max|de|= -7.69e-10  lindep= 0.275
Old state -> New state
    0     ->     1 
    1     ->     2 
    2     ->     3 
    3     ->     4 
    4     ->     5 
    5     ->     6 
    6     ->     7 
    7     ->     8 
    8     ->     9 
davidson 82 13  |r|= 1.32  e= [0.11908196 0.1464893  0.17549135 0.19818495 0.20982905 0.21391722
 0.21405613 0.23878834 0.23885331 0.24204067]  max|de|= -0.0305  lindep= 0.21
Old state -> New state
    4     ->     3 
    3     ->     4 
    4     ->     5 
    5     ->     6 
    6     ->     7 
    7     ->     8 
    8     ->     9 
davidson 83 16  |r|= 1.14  e= [0.09759753 0.13947549 0.17549135 0.19050997 0.19818495 0.20982905
 0.21391722 0.21405613 0.23878834 0.23885331]  max|de|= -0.0215  lindep= 0.101
Old state -> New state
    2     ->     1 
    4     ->     2 
    5     ->     3 
    6     ->     4 
    7     ->     5 
    5     ->     6 
    8     ->     7 
    9     ->     8 
    3     ->     9 
davidson 84 19  |r|= 1.07  e= [0.09966585 0.17549135 0.19818495 0.20982905 0.21391722 0.21405613
 0.22601775 0.23878834 0.23885331 0.24210264]  max|de|= 0.0516  lindep= 0.0398
Old state -> New state
    1     ->     2 
    2     ->     3 
    3     ->     4 
    4     ->     5 
    5     ->     6 
davidson 85 22  |r|= 1.06  e= [0.09955678 0.16800237 0.17549135 0.19818495 0.20982905 0.21391722
 0.21405613 0.23878834 0.23885331 0.24183996]  max|de|= -0.00749  lindep= 0.065
Old state -> New state
    0     ->     1 
    5     ->     7 
    7     ->     8 
    8     ->     9 
davidson 86 25  |r|= 1.34  e= [0.01376702 0.09706339 0.17549135 0.19818495 0.20982905 0.21391722
 0.21405613 0.21598231 0.23878834 0.23885331]  max|de|= -0.0858  lindep= 0.157
Old state -> New state
    2     ->     1 
    3     ->     2 
    4     ->     3 
    5     ->     4 
    6     ->     5 
    8     ->     6 
    9     ->     7 
    0     ->     8 
    0     ->     9 
davidson 87 28  |r|= 1.25  e= [0.00936582 0.17549135 0.19818495 0.20982905 0.21391722 0.21405613
 0.23878834 0.23885331 0.24189643 0.32360973]  max|de|= 0.31  lindep= 0.211
Old state -> New state
    1     ->     0 
    8     ->     1 
davidson 88 31  |r|= 0.758  e= [0.17549135 0.18613345 0.19818495 0.20982905 0.21391722 0.21405613
 0.23878834 0.23885331 0.2419456  0.28240614]  max|de|= -0.0558  lindep= 0.247
Old state -> New state
    1     ->     0 
    0     ->     1 
    1     ->     2 
    2     ->     3 
    3     ->     4 
    4     ->     5 
    5     ->     6 
    6     ->     7 
    7     ->     8 
    8     ->     9 
davidson 89 34  |r|= 0.773  e= [0.17238152 0.17549135 0.18287061 0.19818495 0.20982905 0.21391722
 0.21405613 0.23878834 0.23885331 0.24193839]  max|de|= -0.0138  lindep= 0.0674
Old state -> New state
    9     ->     0 
    0     ->     1 
    1     ->     2 
davidson 90 37  |r|= 1.06  e= [0.12617734 0.16980604 0.17549135 0.19818495 0.20982905 0.21391722
 0.21405613 0.23878834 0.23885331 0.24193068]  max|de|= -0.116  lindep= 0.109
Old state -> New state
    9     ->     0 
    0     ->     1 
root 2 converged  |r|= 1.56e-08  e= 0.17549135113423153  max|de|= 1.52e-10
davidson 91 40  |r|= 1.26  e= [0.10466786 0.12255347 0.17549135 0.19818495 0.20982905 0.21391722
 0.21405613 0.23878834 0.23885331 0.24190648]  max|de|= -0.137  lindep= 0.282
Old state -> New state
    2     ->     1 
    3     ->     2 
    4     ->     3 
    5     ->     4 
    6     ->     5 
    9     ->     6 
davidson 92 43  |r|= 1.24  e= [0.09245545 0.17549135 0.19818495 0.20982905 0.21391722 0.21405613
 0.22585832 0.23878834 0.23885331 0.24186969]  max|de|= -0.016  lindep= 0.0974
Old state -> New state
    0     ->     1 
    1     ->     2 
    2     ->     3 
    3     ->     4 
    4     ->     5 
    5     ->     6 
davidson 93 46  |r|= 1.29  e= [0.0453456  0.08203022 0.17549135 0.19818495 0.20982905 0.21391722
 0.21405613 0.23878834 0.23885331 0.24190938]  max|de|= -0.0471  lindep= 0.111
davidson 94 49  |r|= 1.46  e= [0.03744781 0.10961706 0.17549135 0.19818495 0.20982905 0.21391722
 0.21405613 0.23878834 0.23885331 0.24191557]  max|de|= 0.0276  lindep= 0.0248
Old state -> New state
    2     ->     0 
    0     ->     1 
    3     ->     2 
    4     ->     3 
    5     ->     4 
    6     ->     5 
    7     ->     6 
    8     ->     7 
    9     ->     8 
    0     ->     9 
davidson 95 52  |r|= 1.05  e= [0.17549135 0.18286262 0.19818495 0.20982905 0.21391722 0.21405613
 0.23878834 0.23885331 0.24191802 0.27859561]  max|de|= 0.241  lindep= 0.133
Old state -> New state
    0     ->     2 
    2     ->     3 
    3     ->     4 
    4     ->     5 
    5     ->     6 
    6     ->     7 
    7     ->     8 
    8     ->     9 
davidson 96 55  |r|= 1.18  e= [0.11977346 0.13741277 0.17549135 0.19818495 0.20982905 0.21391722
 0.21405613 0.23878834 0.23885331 0.24191594]  max|de|= -0.0557  lindep= 0.0971
Old state -> New state
    4     ->     5 
    5     ->     6 
    6     ->     7 
    7     ->     8 
    8     ->     9 
davidson 97 58  |r|= 1.15  e= [0.04513873 0.12192972 0.17549135 0.19818495 0.20219211 0.20982905
 0.21391722 0.21405613 0.23878834 0.23885331]  max|de|= -0.0746  lindep= 0.116
Old state -> New state
    0     ->     1 
    5     ->     4 
    6     ->     5 
    7     ->     6 
    8     ->     7 
    9     ->     8 
    4     ->     9 
davidson 98 61  |r|= 1.51  e= [0.00910872 0.05457767 0.17549135 0.19818495 0.20982905 0.21391722
 0.21405613 0.23878834 0.23885331 0.24191452]  max|de|= 0.0397  lindep= 0.0984
Old state -> New state
    2     ->     1 
    3     ->     2 
    4     ->     3 
    5     ->     4 
    6     ->     5 
    7     ->     6 
    8     ->     7 
    9     ->     8 
    1     ->     9 
davidson 99 64  |r|= 1.19  e= [0.12414311 0.17549136 0.19818495 0.20982905 0.21391722 0.21405613
 0.23878834 0.23885331 0.24191453 0.27917882]  max|de|= 0.225  lindep= 0.138
    CPU time for TDDFT   1523.99 sec, wall time     54.81 sec
TD-SCF states [0, 1, 8, 9] not converged.
Excited State energies (eV)
[3.37810612 4.77536307 5.39288724 5.70973939 5.82098392 5.82476408
 6.49776176 6.4995296  6.58282959 7.59684253]
