 
:: initializing oneAPI environment ...
   slurm_script: BASH_VERSION = 4.2.46(1)-release
   args: Using "$@" for setvars.sh arguments: --force
:: advisor -- latest
:: ccl -- latest
:: clck -- latest
:: compiler -- latest
:: dal -- latest
:: debugger -- latest
:: dev-utilities -- latest
:: dnnl -- latest
:: dpcpp-ct -- latest
:: dpl -- latest
:: inspector -- latest
:: intelpython -- latest
:: ipp -- latest
:: ippcp -- latest
:: ipp -- latest
:: itac -- latest
:: mkl -- latest
:: mpi -- latest
:: tbb -- latest
:: vpl -- latest
:: vtune -- latest
:: oneAPI environment initialized ::
 
SLURM_CPUS_PER_TASK = 28
SLURM_MEM_PER_NODE = 127949
#INFO: **** input file is /home/yangjunjie/work/py-ch3-cl/work/step_-4/main.py ****
import sys
import pyscf
from pyscf import tdscf

def main(xyz_file, basis="631g*", xc="b3lyp", output="ene.out"):
    xyz = None

    with open(xyz_file, "r") as xyz:
        xyz = xyz.readlines()[2:]
        xyz = "".join(xyz)

    mol = pyscf.gto.Mole()
    mol.atom = xyz
    mol.basis = basis
    mol.verbose = 5
    mol.build()

    if xc is not None and xc != "hf":
        mf = pyscf.scf.RKS(mol)
        mf.xc = xc
        mf.kernel()
    else:
        mf = pyscf.scf.RHF(mol)
        mf.kernel()

    ene_mf = mf.e_tot

    tda = pyscf.tdscf.TDA(mf)
    tda.nstates = 10
    tda.kernel()
    ene_tda = tda.e[:5]
    dip_tda = tda.transition_dipole()[:5]

    rpa = pyscf.tdscf.RPA(mf)
    rpa.nstates = 10
    rpa.kernel()
    ene_rpa = rpa.e[:5]
    dip_rpa = rpa.transition_dipole()[:5]

    with open(output, "w") as f:
        f.write(f"RKS energy: {ene_mf: 12.8f}\n")
        f.write("TDA results:\n")
        for i, (ene, dip) in enumerate(zip(ene_tda, dip_tda)):
            f.write(f" {i:2d} {ene: 12.8f} {dip[0]: 12.8f} {dip[1]: 12.8f} {dip[2]: 12.8f}\n")
        
        f.write("\nRPA results:\n")
        for i, (ene, dip) in enumerate(zip(ene_rpa, dip_rpa)):
            f.write(f" {i:2d} {ene: 12.8f} {dip[0]: 12.8f} {dip[1]: 12.8f} {dip[2]: 12.8f}\n")

if __name__ == "__main__":
    xyz = sys.argv[1]
    main(xyz, basis="631g*", xc="b3lyp", output="out.log")
#INFO: ******************** input file end ********************


System: uname_result(system='Linux', node='pauling039', release='3.10.0-327.36.3.el7.x86_64', version='#1 SMP Thu Oct 20 04:56:07 EDT 2016', machine='x86_64')  Threads 28
Python 3.9.7 (default, Oct 27 2021, 01:23:21) 
[GCC 9.3.0]
numpy 1.21.2  scipy 1.6.2
Date: Tue Sep 27 23:12:20 2022
PySCF version 2.0.1
PySCF path  /home/yangjunjie/packages/pyscf/pyscf-main
GIT ORIG_HEAD 14b880cdc4bf7bb64f3989a147c0b04622efc498
GIT HEAD (branch master) 9d5b5bd309d1cc55fbd1a0ec76e26b5b0c7f76af

[ENV] PYSCF_MAX_MEMORY 127949
[ENV] PYSCF_TMPDIR /scratch/global/yangjunjie/
[CONFIG] conf_file /home/yangjunjie/.pyscf_conf.py
[INPUT] verbose = 5
[INPUT] max_memory = 127949 
[INPUT] num. atoms = 16
[INPUT] num. electrons = 68
[INPUT] charge = 0
[INPUT] spin (= nelec alpha-beta = 2S) = 0
[INPUT] symmetry False subgroup None
[INPUT] Mole.unit = angstrom
[INPUT]  1 C      0.000000010000   1.161254490000   1.049076330000 AA    0.000000018897   2.194452947021   1.982466947464 Bohr
[INPUT]  2 C      0.000000000000   1.199250650000   2.437668840000 AA    0.000000000000   2.266255283207   4.606526489986 Bohr
[INPUT]  3 C     -0.000000010000  -0.012542840000   3.122970420000 AA   -0.000000018897  -0.023702532424   5.901558788918 Bohr
[INPUT]  4 C     -0.000000010000  -1.211360420000   2.414781600000 AA   -0.000000018897  -2.289139431938   4.563275874639 Bohr
[INPUT]  5 C      0.000000000000  -1.147305210000   1.027157850000 AA    0.000000000000  -2.168092628187   1.941047023197 Bohr
[INPUT]  6 N      0.000000010000   0.014011670000   0.393433360000 AA    0.000000018897   0.026478218848   0.743481298667 Bohr
[INPUT]  7 C      0.000000020000   0.002876630000  -1.792457720000 AA    0.000000037795   0.005436042862  -3.387254180662 Bohr
[INPUT]  8 H      0.000000020000   2.068172790000   0.445045150000 AA    0.000000037795   3.908280151378   0.841013446566 Bohr
[INPUT]  9 H      0.000000000000   2.148906050000   2.951754140000 AA    0.000000000000   4.060843901921   5.578006911651 Bohr
[INPUT] 10 H     -0.000000010000  -0.022507360000   4.204533310000 AA   -0.000000018897  -0.042532746187   7.945416437511 Bohr
[INPUT] 11 H     -0.000000020000  -2.170492250000   2.911144980000 AA   -0.000000037795  -4.101635907991   5.501266721102 Bohr
[INPUT] 12 H      0.000000000000  -2.041468430000   0.404770010000 AA    0.000000000000  -3.857816224646   0.764904462337 Bohr
[INPUT] 13 H     -0.000000030000   1.074345020000  -1.648307200000 AA   -0.000000056692   2.030217851090  -3.114849177149 Bohr
[INPUT] 14 H     -0.927631730000  -0.529014390000  -1.637779140000 AA   -1.752969914156  -0.999692313054  -3.094954027126 Bohr
[INPUT] 15 H      0.927631740000  -0.529014330000  -1.637779150000 AA    1.752969933054  -0.999692199670  -3.094954046023 Bohr
[INPUT] 16 Cl    -0.000000010000   0.003150530000  -3.872267300000 AA   -0.000000018897   0.005953638847  -7.317524678109 Bohr
[INPUT] ---------------- BASIS SET ---------------- 
[INPUT] l, kappa, [nprim/nctr], expnt,             c_1 c_2 ...
[INPUT] C
[INPUT] 0    0    [6    /1   ]  3047.5249         0.0018347
                                457.36951         0.0140373
                                103.94869         0.0688426
                                29.210155         0.2321844
                                9.286663          0.4679413
                                3.163927          0.362312
[INPUT] 0    0    [3    /1   ]  7.8682724         -0.1193324
                                1.8812885         -0.1608542
                                0.5442493         1.1434564
[INPUT] 0    0    [1    /1   ]  0.1687144            1
[INPUT] 1    0    [3    /1   ]  7.8682724         0.0689991
                                1.8812885         0.316424
                                0.5442493         0.7443083
[INPUT] 1    0    [1    /1   ]  0.1687144            1
[INPUT] 2    0    [1    /1   ]  0.8                  1
[INPUT] H
[INPUT] 0    0    [3    /1   ]  18.731137         0.0334946
                                2.8253937         0.23472695
                                0.6401217         0.81375733
[INPUT] 0    0    [1    /1   ]  0.1612778            1
[INPUT] Cl
[INPUT] 0    0    [6    /1   ]  25180.1           0.001833
                                3780.35           0.014034
                                860.474           0.069097
                                242.145           0.237452
                                77.3349           0.483034
                                26.247            0.339856
[INPUT] 0    0    [6    /1   ]  491.765           -0.0022974
                                116.984           -0.030714
                                37.4153           -0.112528
                                13.7834           0.045016
                                5.45215           0.589353
                                2.22588           0.465206
[INPUT] 0    0    [3    /1   ]  3.18649           -0.25183
                                1.14427           0.061589
                                0.420377          1.06018
[INPUT] 0    0    [1    /1   ]  0.142657             1
[INPUT] 1    0    [6    /1   ]  491.765           0.0039894
                                116.984           0.030318
                                37.4153           0.12988
                                13.7834           0.327951
                                5.45215           0.453527
                                2.22588           0.252154
[INPUT] 1    0    [3    /1   ]  3.18649           -0.014299
                                1.14427           0.323572
                                0.420377          0.743507
[INPUT] 1    0    [1    /1   ]  0.142657             1
[INPUT] 2    0    [1    /1   ]  0.75                 1
[INPUT] N
[INPUT] 0    0    [6    /1   ]  4173.511          0.0018348
                                627.4579          0.013995
                                142.9021          0.068587
                                40.23433          0.232241
                                12.82021          0.46907
                                4.390437          0.360455
[INPUT] 0    0    [3    /1   ]  11.626358         -0.114961
                                2.71628           -0.169118
                                0.772218          1.145852
[INPUT] 0    0    [1    /1   ]  0.2120313            1
[INPUT] 1    0    [3    /1   ]  11.626358         0.06758
                                2.71628           0.323907
                                0.772218          0.740895
[INPUT] 1    0    [1    /1   ]  0.2120313            1
[INPUT] 2    0    [1    /1   ]  0.8                  1

nuclear repulsion = 380.09377833485
number of shells = 66
number of NR pGTOs = 272
number of NR cGTOs = 132
basis = 631g*
ecp = {}
CPU time:         0.37


******** <class 'pyscf.dft.rks.RKS'> ********
method = RKS
initial guess = minao
damping factor = 0
level_shift factor = 0
DIIS = <class 'pyscf.scf.diis.CDIIS'>
diis_start_cycle = 1
diis_space = 8
SCF conv_tol = 1e-09
SCF conv_tol_grad = None
SCF max_cycles = 50
direct_scf = True
direct_scf_tol = 1e-13
chkfile to save SCF result = /scratch/global/yangjunjie/tmp56w8ki65
max_memory 127949 MB (current use 81 MB)
XC library pyscf.dft.libxc version 5.2.0
    S. Lehtola, C. Steigemann, M. J. Oliveira, and M. A. Marques, SoftwareX 7, 1 (2018)
XC functionals = b3lyp
    P. A. M. Dirac, Math. Proc. Cambridge Philos. Soc. 26, 376 (1930)
    F. Bloch, Z. Phys. 57, 545 (1929)
    A. D. Becke, Phys. Rev. A 38, 3098 (1988)
    C. Lee, W. Yang, and R. G. Parr, Phys. Rev. B 37, 785 (1988)
    B. Miehlich, A. Savin, H. Stoll, and H. Preuss, Chem. Phys. Lett. 157, 200 (1989)
    S. H. Vosko, L. Wilk, and M. Nusair, Can. J. Phys. 58, 1200 (1980)
radial grids: 
    Treutler-Ahlrichs [JCP 102, 346 (1995); DOI:10.1063/1.469408] (M4) radial grids
    
becke partition: Becke, JCP 88, 2547 (1988); DOI:10.1063/1.454033
pruning grids: <function nwchem_prune at 0x7fa23ab30ee0>
grids dens level: 3
symmetrized grids: False
atomic radii adjust function: <function treutler_atomic_radii_adjust at 0x7fa23ab30e50>
small_rho_cutoff = 1e-07
Set gradient conv threshold to 3.16228e-05
atom C rad-grids = 75, ang-grids = [ 50  50  50  50  50  50  50  50  50  50  50  50  50  50  50  50  50  50
  50  50  50  50  50  86  86  86  86  86  86  86  86  86  86 266 266 266
 266 266 266 266 302 302 302 302 302 302 302 302 302 302 302 302 302 302
 302 302 302 302 302 302 266 266 266 266 266 266 266 266 266 266 266 266
 266 266 266]
atom N rad-grids = 75, ang-grids = [ 50  50  50  50  50  50  50  50  50  50  50  50  50  50  50  50  50  50
  50  50  50  50  50  86  86  86  86  86  86  86  86  86 266 266 266 266
 266 266 266 302 302 302 302 302 302 302 302 302 302 302 302 302 302 302
 302 302 302 302 266 266 266 266 266 266 266 266 266 266 266 266 266 266
 266 266 266]
atom H rad-grids = 50, ang-grids = [ 50  50  50  50  50  50  50  50  50  50  50  50  50  50  86  86  86  86
 266 266 266 266 302 302 302 302 302 302 302 302 302 302 302 302 302 266
 266 266 266 266 266 266 266 266 266 266 266 266 266 266]
atom Cl rad-grids = 80, ang-grids = [ 50  50  50  50  50  50  50  50  50  50  50  50  50  50  50  50  50  50
  50  50  50  50  50  50  86  86  86  86  86  86  86  86  86  86  86  86
  86 350 350 350 350 350 350 350 350 350 434 434 434 434 434 434 434 434
 434 434 434 434 434 434 434 434 434 434 350 350 350 350 350 350 350 350
 350 350 350 350 350 350 350 350]
tot grids = 196530
Drop grids 33526
    CPU time for setting up grids      3.87 sec, wall time      0.17 sec
nelec by numeric integration = 67.97656143002698
    CPU time for vxc      6.16 sec, wall time      0.24 sec
E1 = -1773.4241694232628  Ecoul = 714.7218044723786  Exc = -70.34814007253242
init E= -748.956726688566
cond(S) = 6562.440230984351
    CPU time for initialize scf     17.10 sec, wall time      0.72 sec
  HOMO = -0.294751460534686  LUMO = -0.0978536687800458
  mo_energy =
[-1.01594493e+02 -1.44115237e+01 -1.02920075e+01 -1.02913154e+01
 -1.02904123e+01 -1.02865713e+01 -1.02861025e+01 -1.02820185e+01
 -9.53469455e+00 -7.29037603e+00 -7.28997043e+00 -7.28996936e+00
 -1.10802821e+00 -9.38744806e-01 -8.89781584e-01 -8.86207155e-01
 -7.68112714e-01 -7.15498194e-01 -7.03802222e-01 -5.78286732e-01
 -5.33734605e-01 -5.11880539e-01 -4.74801903e-01 -4.74748627e-01
 -4.59353749e-01 -4.49909421e-01 -4.36041524e-01 -4.02318112e-01
 -3.99912592e-01 -3.51008859e-01 -3.49959473e-01 -3.25695832e-01
 -2.95913006e-01 -2.94751461e-01 -9.78536688e-02 -8.01555327e-02
 -7.34652045e-02  5.16907520e-02  6.95379127e-02  7.01225238e-02
  9.36541587e-02  1.15515645e-01  1.24818469e-01  1.32567786e-01
  1.42446450e-01  1.68801924e-01  2.09657694e-01  2.39139326e-01
  2.60131917e-01  2.65260990e-01  3.49474349e-01  3.87149306e-01
  4.00540673e-01  4.12660324e-01  4.13365766e-01  4.56824724e-01
  4.60635060e-01  4.80455222e-01  4.90992884e-01  5.23473089e-01
  5.25518958e-01  5.37251525e-01  5.42393076e-01  5.51439113e-01
  5.57755861e-01  5.62718227e-01  5.91435664e-01  6.12556660e-01
  6.43024617e-01  6.43472585e-01  7.02465308e-01  7.48648612e-01
  7.64138868e-01  7.72729755e-01  7.90817166e-01  7.94883135e-01
  7.98673829e-01  8.02402125e-01  8.38273802e-01  8.55794824e-01
  8.62344778e-01  8.70574054e-01  8.79674178e-01  8.89498248e-01
  9.08134783e-01  9.49580739e-01  9.66246237e-01  9.86184007e-01
  1.03445381e+00  1.08496507e+00  1.12282982e+00  1.15811397e+00
  1.17901650e+00  1.25235104e+00  1.30626602e+00  1.35141472e+00
  1.39911302e+00  1.41012517e+00  1.41257557e+00  1.44423093e+00
  1.45059517e+00  1.46566600e+00  1.63434344e+00  1.63456394e+00
  1.65774421e+00  1.75290543e+00  1.77409227e+00  1.77518470e+00
  1.87171461e+00  1.88714158e+00  1.99491591e+00  2.05612691e+00
  2.06190776e+00  2.07251827e+00  2.09509591e+00  2.10639163e+00
  2.15905000e+00  2.16466582e+00  2.19217999e+00  2.22556882e+00
  2.25642529e+00  2.30015302e+00  2.48150940e+00  2.48851302e+00
  2.58996254e+00  2.61582950e+00  2.63070958e+00  2.64919251e+00
  2.70336042e+00  2.70445317e+00  2.96356170e+00  3.33536702e+00]
nelec by numeric integration = 68.00003427201803
    CPU time for vxc      6.01 sec, wall time      0.22 sec
E1 = -1781.5621010188263  Ecoul = 724.223335148602  Exc = -70.80297151240535
cycle= 1 E= -748.047959047779  delta_E= 0.909  |g|= 0.399  |ddm|=  3.9
    CPU time for cycle= 1      6.52 sec, wall time      0.24 sec
  HOMO = -0.150693415930641  LUMO = -0.0272842265097872
  mo_energy =
[-1.01197943e+02 -1.43012956e+01 -1.02333806e+01 -1.02327610e+01
 -1.02191568e+01 -1.01520626e+01 -1.01231279e+01 -1.01228803e+01
 -9.16967502e+00 -6.92676739e+00 -6.92043944e+00 -6.92042623e+00
 -9.60665085e-01 -7.91092724e-01 -7.73719878e-01 -7.17261881e-01
 -6.41208099e-01 -6.32267268e-01 -5.96183896e-01 -5.42480149e-01
 -4.83276255e-01 -4.83195632e-01 -4.50449255e-01 -4.41782642e-01
 -4.30104815e-01 -4.06679196e-01 -4.05659586e-01 -3.71317862e-01
 -3.01278817e-01 -2.84774972e-01 -2.71334814e-01 -2.00655518e-01
 -1.51013173e-01 -1.50693416e-01 -2.72842265e-02 -1.75522751e-02
  5.42752261e-02  9.02182663e-02  1.02426326e-01  1.12566299e-01
  1.37020148e-01  1.43094668e-01  1.49262173e-01  1.65222126e-01
  1.71353337e-01  1.96694724e-01  2.59495486e-01  2.85043975e-01
  3.14047347e-01  3.16575249e-01  4.21014484e-01  4.55169335e-01
  4.96790747e-01  5.20945622e-01  5.32714551e-01  5.34817222e-01
  5.57503596e-01  5.64950162e-01  5.76994153e-01  5.82011471e-01
  5.91848884e-01  5.99961694e-01  6.00966723e-01  6.14039816e-01
  6.14862178e-01  6.18639559e-01  6.45080662e-01  6.53526666e-01
  6.94843194e-01  7.11735254e-01  7.81814043e-01  7.99192793e-01
  8.36593244e-01  8.42003695e-01  8.49542575e-01  8.53161174e-01
  9.04539773e-01  9.05683892e-01  9.13333991e-01  9.23052949e-01
  9.38474595e-01  9.90845268e-01  1.01324910e+00  1.04825366e+00
  1.06448007e+00  1.07173615e+00  1.07644441e+00  1.08963931e+00
  1.10667344e+00  1.11968317e+00  1.16046998e+00  1.20102877e+00
  1.25075741e+00  1.37247765e+00  1.38569063e+00  1.39691268e+00
  1.43816265e+00  1.48027582e+00  1.48702311e+00  1.49811315e+00
  1.51136360e+00  1.51702411e+00  1.70829797e+00  1.70872572e+00
  1.71205292e+00  1.80583750e+00  1.84328331e+00  1.86230292e+00
  1.94756537e+00  1.95378700e+00  2.07990433e+00  2.13562435e+00
  2.14221330e+00  2.14419936e+00  2.17344865e+00  2.17524477e+00
  2.22886329e+00  2.23399053e+00  2.25982510e+00  2.29809520e+00
  2.33996724e+00  2.36361594e+00  2.54941447e+00  2.56082771e+00
  2.66938374e+00  2.70395066e+00  2.70523751e+00  2.73552770e+00
  2.78714721e+00  2.80019831e+00  3.04620910e+00  3.42510287e+00]
nelec by numeric integration = 68.00003878438686
    CPU time for vxc      7.12 sec, wall time      0.26 sec
E1 = -1774.0090419418354  Ecoul = 716.0905188728779  Exc = -70.21096678002304
cycle= 2 E= -748.03571151413  delta_E= 0.0122  |g|= 0.471  |ddm|=  1.2
    CPU time for cycle= 2      7.62 sec, wall time      0.28 sec
  HOMO = -0.232565602662914  LUMO = -0.0435974277524896
  mo_energy =
[-1.01438046e+02 -1.43315061e+01 -1.02288021e+01 -1.02240022e+01
 -1.02236374e+01 -1.02165469e+01 -1.02164441e+01 -1.01797335e+01
 -9.36719698e+00 -7.12925157e+00 -7.12155820e+00 -7.12154774e+00
 -9.67370163e-01 -8.29308638e-01 -7.87685986e-01 -7.42247793e-01
 -6.57227299e-01 -6.54961650e-01 -6.39221825e-01 -5.52542106e-01
 -5.03300133e-01 -4.96515338e-01 -4.58307743e-01 -4.30426618e-01
 -4.28433148e-01 -4.11942698e-01 -4.06590229e-01 -3.93213655e-01
 -3.24327699e-01 -3.10658699e-01 -2.86350423e-01 -2.38004155e-01
 -2.32867240e-01 -2.32565603e-01 -4.35974278e-02 -3.29308224e-02
  3.68763515e-02  8.03308529e-02  1.10798132e-01  1.17217483e-01
  1.26894576e-01  1.40989481e-01  1.48736667e-01  1.64020300e-01
  1.85724269e-01  2.07751333e-01  2.50456300e-01  2.71105910e-01
  3.04567569e-01  3.08056833e-01  4.20021701e-01  4.39794417e-01
  4.57088053e-01  4.89533816e-01  5.09136135e-01  5.09757254e-01
  5.22270791e-01  5.46026671e-01  5.49612870e-01  5.61551941e-01
  5.66380082e-01  5.73907398e-01  5.82888173e-01  5.87618517e-01
  5.99136729e-01  6.00488797e-01  6.41621235e-01  6.44102421e-01
  6.71736187e-01  7.08519914e-01  7.77722984e-01  8.01857436e-01
  8.07752264e-01  8.19498420e-01  8.32648009e-01  8.50313001e-01
  8.90303843e-01  8.97942407e-01  9.15138965e-01  9.21188686e-01
  9.33071089e-01  9.65005077e-01  9.75399305e-01  9.90491278e-01
  1.00016907e+00  1.00776844e+00  1.01592373e+00  1.05328540e+00
  1.07043676e+00  1.11289838e+00  1.14568352e+00  1.19048847e+00
  1.22907704e+00  1.34790388e+00  1.35295309e+00  1.38109260e+00
  1.43688731e+00  1.44835975e+00  1.45842063e+00  1.49120993e+00
  1.50627910e+00  1.51570783e+00  1.70053489e+00  1.72044437e+00
  1.72859026e+00  1.79806906e+00  1.83211603e+00  1.83961752e+00
  1.92001374e+00  1.93895033e+00  2.05361902e+00  2.11772858e+00
  2.12230709e+00  2.14352016e+00  2.14596731e+00  2.16299516e+00
  2.21985934e+00  2.25556229e+00  2.28089527e+00  2.28243213e+00
  2.31260434e+00  2.35375018e+00  2.53420253e+00  2.54082480e+00
  2.64363788e+00  2.68217860e+00  2.69013291e+00  2.71545230e+00
  2.76869517e+00  2.77079412e+00  3.03395591e+00  3.40514579e+00]
nelec by numeric integration = 68.00003535461212
    CPU time for vxc      5.96 sec, wall time      0.23 sec
E1 = -1777.0175585072084  Ecoul = 719.2722662145808  Exc = -70.44678723391611
cycle= 3 E= -748.098301191693  delta_E= -0.0626  |g|= 0.122  |ddm|= 0.656
    CPU time for cycle= 3      6.51 sec, wall time      0.25 sec
  HOMO = -0.239534645984918  LUMO = -0.0504211525119648
  mo_energy =
[-1.01447727e+02 -1.43728531e+01 -1.02472629e+01 -1.02472430e+01
 -1.02292702e+01 -1.02233546e+01 -1.02184488e+01 -1.02183602e+01
 -9.37638550e+00 -7.13835493e+00 -7.13085821e+00 -7.13084723e+00
 -9.85834884e-01 -8.31154688e-01 -7.95993594e-01 -7.55121306e-01
 -6.66236544e-01 -6.65581901e-01 -6.49469958e-01 -5.56530218e-01
 -5.11760793e-01 -4.98386993e-01 -4.63712941e-01 -4.46245229e-01
 -4.31901561e-01 -4.30524054e-01 -4.21465839e-01 -3.97135320e-01
 -3.39512603e-01 -3.16083221e-01 -2.92153326e-01 -2.55529905e-01
 -2.39804236e-01 -2.39534646e-01 -5.04211525e-02 -3.85675507e-02
  2.01865479e-02  7.89649408e-02  1.02506454e-01  1.13516178e-01
  1.20536092e-01  1.37589192e-01  1.46611678e-01  1.62713230e-01
  1.73056331e-01  1.98670194e-01  2.45431274e-01  2.70171418e-01
  2.98234689e-01  3.02543368e-01  4.13682933e-01  4.34120529e-01
  4.51669172e-01  4.83943865e-01  5.01705031e-01  5.03058990e-01
  5.17020900e-01  5.39223033e-01  5.43121207e-01  5.56033087e-01
  5.62814664e-01  5.72341043e-01  5.78162001e-01  5.85179996e-01
  5.92731553e-01  5.94197473e-01  6.29694483e-01  6.36173698e-01
  6.70768695e-01  6.95585102e-01  7.67504766e-01  7.95769771e-01
  8.07961009e-01  8.11563099e-01  8.30618617e-01  8.33116127e-01
  8.87604204e-01  8.92126351e-01  9.05653717e-01  9.05707636e-01
  9.22200005e-01  9.58005975e-01  9.66251675e-01  9.82217238e-01
  9.90923664e-01  9.99180294e-01  1.00520237e+00  1.04025577e+00
  1.06357664e+00  1.10756415e+00  1.14588101e+00  1.18505898e+00
  1.22187118e+00  1.33631293e+00  1.34719990e+00  1.37567650e+00
  1.43138253e+00  1.44519377e+00  1.45606815e+00  1.48000442e+00
  1.49184335e+00  1.50097127e+00  1.69175515e+00  1.69897902e+00
  1.70277283e+00  1.79126951e+00  1.81917351e+00  1.83197954e+00
  1.91796439e+00  1.93297260e+00  2.04867824e+00  2.11148945e+00
  2.11579524e+00  2.12291755e+00  2.14308096e+00  2.15183294e+00
  2.20629512e+00  2.23350417e+00  2.25963814e+00  2.27276480e+00
  2.30741330e+00  2.34141764e+00  2.52598637e+00  2.53476336e+00
  2.63861418e+00  2.67398584e+00  2.67911815e+00  2.70729321e+00
  2.75896069e+00  2.76462228e+00  3.02037462e+00  3.39615983e+00]
nelec by numeric integration = 68.00003548207114
    CPU time for vxc      5.98 sec, wall time      0.21 sec
E1 = -1777.8306751645373  Ecoul = 720.134995889391  Exc = -70.50024528448067
cycle= 4 E= -748.102146224777  delta_E= -0.00385  |g|= 0.0439  |ddm|= 0.171
    CPU time for cycle= 4      6.52 sec, wall time      0.23 sec
  HOMO = -0.240206185156205  LUMO = -0.0478579855196353
  mo_energy =
[-1.01444432e+02 -1.43537589e+01 -1.02459153e+01 -1.02458253e+01
 -1.02307999e+01 -1.02287087e+01 -1.02188009e+01 -1.02187536e+01
 -9.37465405e+00 -7.13650666e+00 -7.12895882e+00 -7.12894671e+00
 -9.78422927e-01 -8.30120755e-01 -7.93689002e-01 -7.55414953e-01
 -6.66079011e-01 -6.62779305e-01 -6.48869663e-01 -5.55520953e-01
 -5.09576340e-01 -4.97725303e-01 -4.62455715e-01 -4.44175768e-01
 -4.31611791e-01 -4.30195394e-01 -4.19547997e-01 -3.96199850e-01
 -3.38062469e-01 -3.13720368e-01 -2.90677773e-01 -2.52000463e-01
 -2.40481863e-01 -2.40206185e-01 -4.78579855e-02 -3.70725973e-02
  2.08807667e-02  7.94262226e-02  1.02824430e-01  1.14297998e-01
  1.22516750e-01  1.38384651e-01  1.47033839e-01  1.62978193e-01
  1.73207704e-01  1.99464882e-01  2.47023314e-01  2.70840724e-01
  3.00580426e-01  3.03967509e-01  4.14811856e-01  4.35780378e-01
  4.51011187e-01  4.85245908e-01  5.01368918e-01  5.02645273e-01
  5.18740981e-01  5.39495315e-01  5.43199610e-01  5.57881195e-01
  5.63951898e-01  5.73526574e-01  5.78706583e-01  5.85714995e-01
  5.92875919e-01  5.94263957e-01  6.33141300e-01  6.37325187e-01
  6.71059469e-01  6.97040904e-01  7.68707317e-01  7.96896148e-01
  8.08533209e-01  8.10752934e-01  8.31203003e-01  8.38959014e-01
  8.88091974e-01  8.92953683e-01  9.05534148e-01  9.06259285e-01
  9.22481879e-01  9.57821725e-01  9.65866763e-01  9.83240737e-01
  9.91130487e-01  9.99302342e-01  1.00749574e+00  1.04103527e+00
  1.06446485e+00  1.10943829e+00  1.14634193e+00  1.18677802e+00
  1.22399845e+00  1.33652506e+00  1.34910421e+00  1.37811109e+00
  1.43336295e+00  1.44651623e+00  1.45633529e+00  1.48292115e+00
  1.49628250e+00  1.50448007e+00  1.69496289e+00  1.69953747e+00
  1.70277238e+00  1.79321486e+00  1.82306966e+00  1.83276935e+00
  1.91917607e+00  1.93465138e+00  2.04982983e+00  2.11280897e+00
  2.11771626e+00  2.12376043e+00  2.14433423e+00  2.15471489e+00
  2.20902286e+00  2.23323807e+00  2.25956086e+00  2.27429719e+00
  2.30913496e+00  2.34522041e+00  2.52896646e+00  2.53629263e+00
  2.64002558e+00  2.67630504e+00  2.68205275e+00  2.70916712e+00
  2.76153904e+00  2.76674713e+00  3.02412059e+00  3.39841569e+00]
nelec by numeric integration = 68.00003583571147
    CPU time for vxc      5.91 sec, wall time      0.21 sec
E1 = -1777.6587420836936  Ecoul = 719.9522142856114  Exc = -70.48979291412256
cycle= 5 E= -748.102542377354  delta_E= -0.000396  |g|= 0.0172  |ddm|= 0.0467
    CPU time for cycle= 5      6.43 sec, wall time      0.23 sec
  HOMO = -0.23991514356147  LUMO = -0.0471831843844183
  mo_energy =
[-1.01441769e+02 -1.43577073e+01 -1.02439092e+01 -1.02438337e+01
 -1.02260620e+01 -1.02245250e+01 -1.02171466e+01 -1.02170990e+01
 -9.37282124e+00 -7.13461362e+00 -7.12703482e+00 -7.12702226e+00
 -9.78482557e-01 -8.28897735e-01 -7.92623570e-01 -7.54249948e-01
 -6.64806021e-01 -6.62167926e-01 -6.47690189e-01 -5.54575323e-01
 -5.08701758e-01 -4.96957580e-01 -4.61453614e-01 -4.43125624e-01
 -4.30333383e-01 -4.28950744e-01 -4.18511600e-01 -3.95341221e-01
 -3.37335011e-01 -3.13009614e-01 -2.89568251e-01 -2.52189416e-01
 -2.40192101e-01 -2.39915144e-01 -4.71831844e-02 -3.60446455e-02
  2.25338222e-02  8.01957259e-02  1.03485856e-01  1.14915144e-01
  1.23299203e-01  1.38947691e-01  1.47677463e-01  1.63569531e-01
  1.74023685e-01  2.00105443e-01  2.47804608e-01  2.71732606e-01
  3.01207741e-01  3.04705907e-01  4.15496068e-01  4.36483627e-01
  4.51163773e-01  4.86217050e-01  5.01888621e-01  5.03018989e-01
  5.19345192e-01  5.40253827e-01  5.43599428e-01  5.58647622e-01
  5.64933222e-01  5.74623702e-01  5.79681277e-01  5.86760220e-01
  5.94015068e-01  5.95349055e-01  6.33471529e-01  6.38226243e-01
  6.72064548e-01  6.97896947e-01  7.69793327e-01  7.97745650e-01
  8.09374288e-01  8.11843873e-01  8.32019662e-01  8.38501640e-01
  8.89021208e-01  8.93906429e-01  9.06838590e-01  9.07342670e-01
  9.23564672e-01  9.58462099e-01  9.66482354e-01  9.84046068e-01
  9.91631169e-01  1.00001347e+00  1.00801190e+00  1.04202141e+00
  1.06530142e+00  1.11011899e+00  1.14723390e+00  1.18751187e+00
  1.22496864e+00  1.33720197e+00  1.35014513e+00  1.37852445e+00
  1.43391993e+00  1.44756892e+00  1.45772954e+00  1.48381422e+00
  1.49661861e+00  1.50470842e+00  1.69544450e+00  1.70161566e+00
  1.70515404e+00  1.79403916e+00  1.82350514e+00  1.83422575e+00
  1.92012291e+00  1.93570272e+00  2.05113375e+00  2.11406585e+00
  2.11878635e+00  2.12560674e+00  2.14542624e+00  2.15562154e+00
  2.20998175e+00  2.23539203e+00  2.26165173e+00  2.27547657e+00
  2.31001435e+00  2.34576027e+00  2.52968794e+00  2.53745068e+00
  2.64111749e+00  2.67719960e+00  2.68270250e+00  2.71022425e+00
  2.76236547e+00  2.76762782e+00  3.02463612e+00  3.39929382e+00]
nelec by numeric integration = 68.00003566391717
    CPU time for vxc      6.23 sec, wall time      0.22 sec
E1 = -1777.6103397931874  Ecoul = 719.9003033332065  Exc = -70.48635349417648
cycle= 6 E= -748.102611619307  delta_E= -6.92e-05  |g|= 0.00303  |ddm|= 0.0159
    CPU time for cycle= 6      7.07 sec, wall time      0.25 sec
  HOMO = -0.239843217989462  LUMO = -0.0471285919134552
  mo_energy =
[-1.01441371e+02 -1.43571682e+01 -1.02437805e+01 -1.02437348e+01
 -1.02260302e+01 -1.02252367e+01 -1.02173305e+01 -1.02172742e+01
 -9.37250253e+00 -7.13428148e+00 -7.12670936e+00 -7.12669670e+00
 -9.78449518e-01 -8.28989756e-01 -7.92632376e-01 -7.54368201e-01
 -6.64833489e-01 -6.62112658e-01 -6.47694820e-01 -5.54571581e-01
 -5.08679711e-01 -4.96939485e-01 -4.61502623e-01 -4.43238476e-01
 -4.30445459e-01 -4.29091663e-01 -4.18618036e-01 -3.95341096e-01
 -3.37317056e-01 -3.13021737e-01 -2.89614697e-01 -2.52064769e-01
 -2.40118972e-01 -2.39843218e-01 -4.71285919e-02 -3.60590372e-02
  2.24346767e-02  8.01571524e-02  1.03439864e-01  1.14915975e-01
  1.23336769e-01  1.38956856e-01  1.47662282e-01  1.63558624e-01
  1.73890282e-01  2.00069186e-01  2.47758246e-01  2.71714649e-01
  3.01236510e-01  3.04727353e-01  4.15499611e-01  4.36469549e-01
  4.51322133e-01  4.86179935e-01  5.01870315e-01  5.03026806e-01
  5.19371252e-01  5.40209260e-01  5.43516176e-01  5.58671223e-01
  5.64894319e-01  5.74523580e-01  5.79640461e-01  5.86704753e-01
  5.93953991e-01  5.95289871e-01  6.33517017e-01  6.38209793e-01
  6.72007244e-01  6.97922488e-01  7.69743363e-01  7.97781179e-01
  8.09348205e-01  8.11801819e-01  8.31995439e-01  8.38664713e-01
  8.88975633e-01  8.93875941e-01  9.06689050e-01  9.07315071e-01
  9.23519127e-01  9.58534012e-01  9.66546153e-01  9.84063562e-01
  9.91742121e-01  1.00005542e+00  1.00806835e+00  1.04196784e+00
  1.06529115e+00  1.11012655e+00  1.14718367e+00  1.18747965e+00
  1.22496172e+00  1.33717143e+00  1.35008920e+00  1.37853487e+00
  1.43395146e+00  1.44750892e+00  1.45767094e+00  1.48382902e+00
  1.49666282e+00  1.50473241e+00  1.69547501e+00  1.70136438e+00
  1.70483237e+00  1.79402510e+00  1.82356056e+00  1.83410664e+00
  1.92005831e+00  1.93566289e+00  2.05106013e+00  2.11399531e+00
  2.11873542e+00  2.12540045e+00  2.14535974e+00  2.15563775e+00
  2.20997195e+00  2.23509806e+00  2.26137341e+00  2.27546392e+00
  2.31003621e+00  2.34579163e+00  2.52968539e+00  2.53740284e+00
  2.64107778e+00  2.67721459e+00  2.68279623e+00  2.71024605e+00
  2.76240659e+00  2.76762898e+00  3.02474298e+00  3.39935690e+00]
nelec by numeric integration = 68.00003570006987
    CPU time for vxc      6.37 sec, wall time      0.23 sec
E1 = -1777.6093853945424  Ecoul = 719.8990526160707  Exc = -70.48605934395178
cycle= 7 E= -748.102613787573  delta_E= -2.17e-06  |g|= 0.000663  |ddm|= 0.00361
    CPU time for cycle= 7      7.12 sec, wall time      0.25 sec
  HOMO = -0.239949030840378  LUMO = -0.0471310879629048
  mo_energy =
[-1.01441784e+02 -1.43571307e+01 -1.02439236e+01 -1.02438487e+01
 -1.02260602e+01 -1.02251607e+01 -1.02171844e+01 -1.02171419e+01
 -9.37281441e+00 -7.13460533e+00 -7.12703018e+00 -7.12701753e+00
 -9.78477735e-01 -8.28973620e-01 -7.92641451e-01 -7.54419572e-01
 -6.64854715e-01 -6.62113052e-01 -6.47702331e-01 -5.54579987e-01
 -5.08681084e-01 -4.96929023e-01 -4.61504430e-01 -4.43215993e-01
 -4.30424998e-01 -4.29069353e-01 -4.18605071e-01 -3.95336348e-01
 -3.37344770e-01 -3.13013507e-01 -2.89618775e-01 -2.52097819e-01
 -2.40225041e-01 -2.39949031e-01 -4.71310880e-02 -3.60613499e-02
  2.24244254e-02  8.01627162e-02  1.03456593e-01  1.14917829e-01
  1.23338960e-01  1.38958829e-01  1.47672217e-01  1.63567662e-01
  1.73920839e-01  2.00078923e-01  2.47757482e-01  2.71718859e-01
  3.01233899e-01  3.04728348e-01  4.15507941e-01  4.36454671e-01
  4.51240600e-01  4.86170017e-01  5.01827175e-01  5.02972466e-01
  5.19364813e-01  5.40197040e-01  5.43470075e-01  5.58659457e-01
  5.64898090e-01  5.74516986e-01  5.79643373e-01  5.86704465e-01
  5.93945384e-01  5.95296554e-01  6.33514381e-01  6.38208918e-01
  6.72022878e-01  6.97905928e-01  7.69736595e-01  7.97765675e-01
  8.09334615e-01  8.11805203e-01  8.32012259e-01  8.38660184e-01
  8.88984023e-01  8.93882556e-01  9.06693153e-01  9.07312890e-01
  9.23506135e-01  9.58439452e-01  9.66438665e-01  9.84050969e-01
  9.91632845e-01  9.99988761e-01  1.00806013e+00  1.04196684e+00
  1.06528390e+00  1.11011754e+00  1.14719174e+00  1.18748845e+00
  1.22495932e+00  1.33712833e+00  1.35008582e+00  1.37853630e+00
  1.43394381e+00  1.44752396e+00  1.45767206e+00  1.48380144e+00
  1.49665670e+00  1.50474253e+00  1.69547270e+00  1.70140193e+00
  1.70488373e+00  1.79402411e+00  1.82355976e+00  1.83412440e+00
  1.92006964e+00  1.93565632e+00  2.05105772e+00  2.11400619e+00
  2.11873221e+00  2.12543179e+00  2.14536954e+00  2.15562123e+00
  2.20996528e+00  2.23515109e+00  2.26142310e+00  2.27546168e+00
  2.31004182e+00  2.34577678e+00  2.52967575e+00  2.53740132e+00
  2.64107771e+00  2.67721679e+00  2.68278834e+00  2.71024146e+00
  2.76240125e+00  2.76763849e+00  3.02473261e+00  3.39935514e+00]
nelec by numeric integration = 68.0000356980645
    CPU time for vxc      6.08 sec, wall time      0.22 sec
E1 = -1777.6121269802982  Ecoul = 719.9019733736477  Exc = -70.48623862269925
cycle= 8 E= -748.102613894499  delta_E= -1.07e-07  |g|= 0.000305  |ddm|= 0.00102
    CPU time for cycle= 8      6.79 sec, wall time      0.24 sec
  HOMO = -0.239913513774775  LUMO = -0.04713935946866
  mo_energy =
[-1.01441733e+02 -1.43571526e+01 -1.02438627e+01 -1.02438021e+01
 -1.02260715e+01 -1.02252058e+01 -1.02172363e+01 -1.02171835e+01
 -9.37275970e+00 -7.13455091e+00 -7.12697605e+00 -7.12696340e+00
 -9.78475680e-01 -8.28993432e-01 -7.92643714e-01 -7.54397027e-01
 -6.64851250e-01 -6.62123198e-01 -6.47705845e-01 -5.54585995e-01
 -5.08688869e-01 -4.96945133e-01 -4.61510429e-01 -4.43221989e-01
 -4.30435745e-01 -4.29078866e-01 -4.18611199e-01 -3.95349864e-01
 -3.37337592e-01 -3.13029052e-01 -2.89623632e-01 -2.52092525e-01
 -2.40189375e-01 -2.39913514e-01 -4.71393595e-02 -3.60688786e-02
  2.24292736e-02  8.01510084e-02  1.03451747e-01  1.14912978e-01
  1.23329531e-01  1.38954052e-01  1.47661365e-01  1.63556046e-01
  1.73918582e-01  2.00077429e-01  2.47749916e-01  2.71707140e-01
  3.01226178e-01  3.04719633e-01  4.15500422e-01  4.36452726e-01
  4.51260787e-01  4.86169001e-01  5.01842466e-01  5.02992217e-01
  5.19357843e-01  5.40198884e-01  5.43493513e-01  5.58655575e-01
  5.64890273e-01  5.74509346e-01  5.79634829e-01  5.86694332e-01
  5.93943005e-01  5.95287332e-01  6.33512134e-01  6.38203977e-01
  6.72006982e-01  6.97911850e-01  7.69734527e-01  7.97767179e-01
  8.09335337e-01  8.11791596e-01  8.31996621e-01  8.38657560e-01
  8.88972807e-01  8.93873809e-01  9.06696287e-01  9.07309603e-01
  9.23508711e-01  9.58466641e-01  9.66472612e-01  9.84048668e-01
  9.91665419e-01  1.00000723e+00  1.00805743e+00  1.04196687e+00
  1.06528017e+00  1.11011123e+00  1.14717664e+00  1.18747591e+00
  1.22495118e+00  1.33714613e+00  1.35007727e+00  1.37852516e+00
  1.43393734e+00  1.44750498e+00  1.45766132e+00  1.48380609e+00
  1.49665015e+00  1.50473659e+00  1.69546388e+00  1.70139060e+00
  1.70487050e+00  1.79401603e+00  1.82355202e+00  1.83410998e+00
  1.92005191e+00  1.93565031e+00  2.05104930e+00  2.11399458e+00
  2.11872499e+00  2.12542204e+00  2.14535246e+00  2.15562178e+00
  2.20996159e+00  2.23513846e+00  2.26141181e+00  2.27545665e+00
  2.31002707e+00  2.34577407e+00  2.52966915e+00  2.53739423e+00
  2.64106700e+00  2.67720701e+00  2.68278342e+00  2.71023576e+00
  2.76239587e+00  2.76762362e+00  3.02472969e+00  3.39934733e+00]
nelec by numeric integration = 68.00003569990062
    CPU time for vxc      5.88 sec, wall time      0.21 sec
E1 = -1777.6115350762404  Ecoul = 719.9013627379684  Exc = -70.486219914798
cycle= 9 E= -748.10261391822  delta_E= -2.37e-08  |g|= 4.85e-05  |ddm|= 0.0003
    CPU time for cycle= 9      6.42 sec, wall time      0.23 sec
  HOMO = -0.239913220451464  LUMO = -0.0471407519134023
  mo_energy =
[-1.01441733e+02 -1.43571563e+01 -1.02438759e+01 -1.02438090e+01
 -1.02260611e+01 -1.02251932e+01 -1.02172437e+01 -1.02171978e+01
 -9.37275992e+00 -7.13455124e+00 -7.12697628e+00 -7.12696364e+00
 -9.78479800e-01 -8.28994170e-01 -7.92649251e-01 -7.54397063e-01
 -6.64850142e-01 -6.62126556e-01 -6.47707939e-01 -5.54587483e-01
 -5.08692529e-01 -4.96948497e-01 -4.61514577e-01 -4.43222586e-01
 -4.30434676e-01 -4.29078191e-01 -4.18612615e-01 -3.95352243e-01
 -3.37338196e-01 -3.13029554e-01 -2.89628609e-01 -2.52094855e-01
 -2.40189081e-01 -2.39913220e-01 -4.71407519e-02 -3.60733871e-02
  2.24304353e-02  8.01509567e-02  1.03451373e-01  1.14910858e-01
  1.23326593e-01  1.38953340e-01  1.47660094e-01  1.63555923e-01
  1.73918407e-01  2.00075892e-01  2.47748214e-01  2.71705991e-01
  3.01222807e-01  3.04717168e-01  4.15498890e-01  4.36450168e-01
  4.51262360e-01  4.86166261e-01  5.01842291e-01  5.02992052e-01
  5.19355825e-01  5.40198508e-01  5.43491557e-01  5.58651785e-01
  5.64886607e-01  5.74507760e-01  5.79632973e-01  5.86692866e-01
  5.93943168e-01  5.95286602e-01  6.33509445e-01  6.38200444e-01
  6.72005799e-01  6.97909100e-01  7.69733403e-01  7.97763589e-01
  8.09334869e-01  8.11793337e-01  8.31993186e-01  8.38655308e-01
  8.88972382e-01  8.93872976e-01  9.06697299e-01  9.07308085e-01
  9.23508131e-01  9.58466451e-01  9.66473073e-01  9.84048257e-01
  9.91665660e-01  1.00000738e+00  1.00805519e+00  1.04196684e+00
  1.06527778e+00  1.11010958e+00  1.14717538e+00  1.18747353e+00
  1.22494756e+00  1.33714584e+00  1.35007402e+00  1.37852398e+00
  1.43393505e+00  1.44750247e+00  1.45765934e+00  1.48380098e+00
  1.49664703e+00  1.50473452e+00  1.69546050e+00  1.70139168e+00
  1.70487298e+00  1.79401427e+00  1.82354941e+00  1.83410835e+00
  1.92005114e+00  1.93564579e+00  2.05104658e+00  2.11399107e+00
  2.11872063e+00  2.12542275e+00  2.14535113e+00  2.15561743e+00
  2.20995937e+00  2.23514083e+00  2.26141398e+00  2.27545140e+00
  2.31002559e+00  2.34577034e+00  2.52966637e+00  2.53739034e+00
  2.64106445e+00  2.67720316e+00  2.68277910e+00  2.71023079e+00
  2.76239194e+00  2.76762191e+00  3.02472553e+00  3.39934344e+00]
nelec by numeric integration = 68.00003569925497
    CPU time for vxc      5.92 sec, wall time      0.21 sec
E1 = -1777.6116470952006  Ecoul = 719.9014795776321  Exc = -70.48622473603746
cycle= 10 E= -748.102613918756  delta_E= -5.36e-10  |g|= 2.09e-05  |ddm|= 6.24e-05
    CPU time for cycle= 10      6.43 sec, wall time      0.23 sec
  HOMO = -0.239914441549301  LUMO = -0.0471409024542572
  mo_energy =
[-1.01441733e+02 -1.43571610e+01 -1.02438638e+01 -1.02438060e+01
 -1.02260740e+01 -1.02251960e+01 -1.02172421e+01 -1.02171867e+01
 -9.37276050e+00 -7.13455176e+00 -7.12697674e+00 -7.12696411e+00
 -9.78478526e-01 -8.28994974e-01 -7.92645641e-01 -7.54398824e-01
 -6.64850927e-01 -6.62125122e-01 -6.47706716e-01 -5.54586557e-01
 -5.08691055e-01 -4.96945841e-01 -4.61511307e-01 -4.43223012e-01
 -4.30436309e-01 -4.29079273e-01 -4.18612391e-01 -3.95350946e-01
 -3.37338724e-01 -3.13030572e-01 -2.89625117e-01 -2.52095732e-01
 -2.40190288e-01 -2.39914442e-01 -4.71409025e-02 -3.60705902e-02
  2.24289862e-02  8.01510824e-02  1.03451398e-01  1.14912499e-01
  1.23327927e-01  1.38953601e-01  1.47661147e-01  1.63555681e-01
  1.73917319e-01  2.00076646e-01  2.47748801e-01  2.71706501e-01
  3.01224883e-01  3.04718352e-01  4.15499400e-01  4.36451897e-01
  4.51262132e-01  4.86167967e-01  5.01841381e-01  5.02991099e-01
  5.19356413e-01  5.40198037e-01  5.43490450e-01  5.58654432e-01
  5.64889050e-01  5.74508359e-01  5.79634243e-01  5.86693598e-01
  5.93942501e-01  5.95286357e-01  6.33510061e-01  6.38202727e-01
  6.72006171e-01  6.97910557e-01  7.69734392e-01  7.97766532e-01
  8.09334537e-01  8.11791507e-01  8.31995719e-01  8.38654817e-01
  8.88972132e-01  8.93872859e-01  9.06695845e-01  9.07309049e-01
  9.23507922e-01  9.58465805e-01  9.66471792e-01  9.84047913e-01
  9.91664401e-01  1.00000647e+00  1.00805632e+00  1.04196632e+00
  1.06527933e+00  1.11011054e+00  1.14717625e+00  1.18747497e+00
  1.22494908e+00  1.33714433e+00  1.35007588e+00  1.37852393e+00
  1.43393656e+00  1.44750314e+00  1.45766014e+00  1.48380456e+00
  1.49664771e+00  1.50473464e+00  1.69546163e+00  1.70139063e+00
  1.70487104e+00  1.79401506e+00  1.82354995e+00  1.83410875e+00
  1.92005090e+00  1.93564906e+00  2.05104791e+00  2.11399296e+00
  2.11872342e+00  2.12542157e+00  2.14535094e+00  2.15561999e+00
  2.20996010e+00  2.23513917e+00  2.26141249e+00  2.27545486e+00
  2.31002497e+00  2.34577200e+00  2.52966733e+00  2.53739273e+00
  2.64106552e+00  2.67720481e+00  2.68278085e+00  2.71023375e+00
  2.76239360e+00  2.76762156e+00  3.02472718e+00  3.39934514e+00]
nelec by numeric integration = 68.00003569950755
    CPU time for vxc      5.97 sec, wall time      0.21 sec
E1 = -1777.6116482504403  Ecoul = 719.9014821616057  Exc = -70.48622616460784
Extra cycle  E= -748.102613918592  delta_E= 1.64e-10  |g|= 3.3e-05  |ddm|= 4.72e-05
    CPU time for scf_cycle     90.99 sec, wall time      3.39 sec
    CPU time for SCF     91.00 sec, wall time      3.39 sec
converged SCF energy = -748.102613918592
Converting <class 'pyscf.dft.rks.RKS'> to RHF


******** <class 'pyscf.tdscf.rks.TDA'> for <class 'pyscf.dft.rks.RKS'> ********
nstates = 10 singlet
wfnsym = None
conv_tol = 1e-09
eigh lindep = 1e-12
eigh level_shift = 0
eigh max_space = 50
eigh max_cycle = 100
chkfile = /scratch/global/yangjunjie/tmp56w8ki65
max_memory 127949 MB (current use 611 MB)


davidson 0 10  |r|= 0.219  e= [0.16971731 0.17373322 0.17399444 0.17753915 0.18487726 0.18513029
 0.21829857 0.2186727  0.28019318 0.31758799]  max|de|= 0.318  lindep=    1
davidson 1 20  |r|= 0.0639  e= [0.16639272 0.17363711 0.17368506 0.17505632 0.18481047 0.18509554
 0.21568211 0.21602843 0.2203647  0.26224347]  max|de|= -0.0598  lindep= 0.743
Old state -> New state
    8     ->     6 
    6     ->     7 
    7     ->     8 
davidson 2 30  |r|= 0.0445  e= [0.16616612 0.17363678 0.17364881 0.17500402 0.18479911 0.18509499
 0.2139876  0.21544309 0.21577948 0.25455624]  max|de|= -0.00769  lindep= 0.827
davidson 3 40  |r|= 0.023  e= [0.16616404 0.17363678 0.17364641 0.17500252 0.18479827 0.18509497
 0.21339963 0.21543296 0.21576439 0.25003934]  max|de|= -0.00452  lindep= 0.822
root 1 converged  |r|= 6.98e-07  e= 0.17363677518428022  max|de|= -5.04e-11
root 5 converged  |r|= 2.46e-06  e= 0.18509496679005383  max|de|= -7.72e-10
davidson 4 50  |r|= 0.00984  e= [0.16616401 0.17363678 0.17364635 0.17500249 0.18479825 0.18509497
 0.21338098 0.21543267 0.21576337 0.24911267]  max|de|= -0.000927  lindep= 0.823
root 0 converged  |r|= 1.77e-06  e= 0.16616400773344886  max|de|= -3.8e-10
root 3 converged  |r|= 2.15e-06  e= 0.17500249135053209  max|de|= -3.59e-10
root 4 converged  |r|= 5.25e-06  e= 0.18479824941793876  max|de|= -9.84e-10
davidson 5 58  |r|= 0.00381  e= [0.16616401 0.17363678 0.17364634 0.17500249 0.18479825 0.18509497
 0.21337941 0.21543266 0.21576331 0.2489344 ]  max|de|= -0.000178  lindep= 0.824
root 2 converged  |r|= 8.38e-07  e= 0.1736463423226378  max|de|= -3.9e-11
root 7 converged  |r|= 2.6e-06  e= 0.21543265885566182  max|de|= -1.62e-10
davidson 6 63  |r|= 0.00117  e= [0.16616401 0.17363678 0.17364634 0.17500249 0.18479825 0.18509497
 0.21337931 0.21543266 0.2157633  0.24891288]  max|de|= -2.15e-05  lindep= 0.82
root 8 converged  |r|= 2.15e-06  e= 0.21576330264688337  max|de|= -1.38e-10
davidson 7 66  |r|= 0.000414  e= [0.16616401 0.17363678 0.17364634 0.17500249 0.18479825 0.18509497
 0.21337931 0.21543266 0.2157633  0.24891063]  max|de|= -2.25e-06  lindep= 0.833
root 6 converged  |r|= 1.72e-06  e= 0.21337930719311904  max|de|= -9.33e-11
davidson 8 68  |r|= 0.000101  e= [0.16616401 0.17363678 0.17364634 0.17500249 0.18479825 0.18509497
 0.21337931 0.21543266 0.2157633  0.24891043]  max|de|= -1.95e-07  lindep= 0.846
davidson 9 10  |r|= 0.000101  e= [0.16616401 0.17363678 0.17364634 0.17500249 0.18479825 0.18509497
 0.21337931 0.21543266 0.2157633  0.24891043]  max|de|= -3.89e-16  lindep=    1
davidson 10 11  |r|= 3.24e-05  e= [0.16616401 0.17363678 0.17364634 0.17500249 0.18479825 0.18509497
 0.21337931 0.21543266 0.2157633  0.24891042]  max|de|= -1.11e-08  lindep= 0.766
davidson 11 12  |r|= 7.64e-06  e= [0.16616401 0.17363678 0.17364634 0.17500249 0.18479825 0.18509497
 0.21337931 0.21543266 0.2157633  0.24891042]  max|de|= -1.33e-09  lindep= 0.944
root 9 converged  |r|= 3.41e-06  e= 0.24891042004477104  max|de|= -9.21e-11
converged 12 13  |r|= 3.41e-06  e= [0.16616401 0.17363678 0.17364634 0.17500249 0.18479825 0.18509497
 0.21337931 0.21543266 0.2157633  0.24891042]  max|de|= -9.21e-11
    CPU time for TDA    238.16 sec, wall time      8.72 sec
Excited State energies (eV)
[4.52155296 4.72489732 4.72515765 4.76206035 5.0286165  5.03669059
 5.8063467  5.86222124 5.87121852 6.77319752]
Converting <class 'pyscf.dft.rks.RKS'> to RHF


******** <class 'pyscf.tdscf.rks.TDDFT'> for <class 'pyscf.dft.rks.RKS'> ********
nstates = 10 singlet
wfnsym = None
conv_tol = 1e-09
eigh lindep = 1e-12
eigh level_shift = 0
eigh max_space = 50
eigh max_cycle = 100
chkfile = /scratch/global/yangjunjie/tmp56w8ki65
max_memory 127949 MB (current use 633 MB)


davidson 0 10  |r|= 0.333  e= [0.16971731 0.17373322 0.17399444 0.17753915 0.18487726 0.18513029
 0.21829857 0.2186727  0.28019318 0.31758799]  max|de|= 0.318  lindep=    1
Old state -> New state
    2     ->     1 
    1     ->     2 
    9     ->     6 
    9     ->     7 
    6     ->     8 
    7     ->     9 
davidson 1 20  |r|= 0.285  e= [0.16249249 0.17353343 0.17363321 0.17468018 0.18481254 0.1850915
 0.18632417 0.19875739 0.20694831 0.20847968]  max|de|= -0.131  lindep= 0.266
Old state -> New state
    7     ->     0 
    0     ->     1 
    0     ->     2 
    9     ->     3 
    2     ->     4 
    1     ->     5 
    3     ->     6 
    4     ->     7 
    5     ->     8 
    6     ->     9 
davidson 2 30  |r|= 1.06  e= [0.07244845 0.16398512 0.16537789 0.17256029 0.17363528 0.1736406
 0.17488635 0.18473461 0.18509386 0.19715869]  max|de|= -0.126  lindep= 0.0967
Old state -> New state
    2     ->     0 
    6     ->     1 
    9     ->     2 
    2     ->     3 
    5     ->     4 
    4     ->     5 
    6     ->     7 
    7     ->     8 
    8     ->     9 
davidson 3 40  |r|=  1.5  e= [0.0220555  0.06403644 0.11873415 0.16467258 0.17356862 0.17363613
 0.17427193 0.17488525 0.18476953 0.1850951 ]  max|de|= -0.143  lindep=  0.1
Old state -> New state
    2     ->     0 
    0     ->     1 
    0     ->     2 
    7     ->     6 
    8     ->     7 
    9     ->     8 
    2     ->     9 
davidson 4 50  |r|= 1.21  e= [0.05525084 0.07153131 0.08719548 0.16488146 0.17360072 0.17363483
 0.17484788 0.18478002 0.18509347 0.20985182]  max|de|= 0.0911  lindep= 0.0717
Old state -> New state
    0     ->     3 
    0     ->     4 
    3     ->     5 
    4     ->     6 
    5     ->     7 
    6     ->     8 
    7     ->     9 
davidson 5 60  |r|= 1.35  e= [0.01734736 0.02711759 0.07505801 0.10145477 0.13811551 0.16487871
 0.17359467 0.17363467 0.17484801 0.18477841]  max|de|= 0.0829  lindep= 0.0478
Old state -> New state
    0     ->     2 
    5     ->     3 
    6     ->     4 
    7     ->     5 
    8     ->     6 
    9     ->     7 
    2     ->     8 
    3     ->     9 
davidson 6 70  |r|= 1.15  e= [0.05831002 0.11243774 0.13009892 0.16487908 0.17359729 0.17363469
 0.17484629 0.18478337 0.18509333 0.21092227]  max|de|= 0.113  lindep= 0.129
Old state -> New state
    3     ->     1 
    3     ->     2 
    4     ->     3 
    5     ->     4 
    6     ->     5 
    7     ->     6 
    8     ->     7 
    9     ->     8 
    1     ->     9 
davidson 7 80  |r|= 1.28  e= [0.01076844 0.09691591 0.1648797  0.17359228 0.17363468 0.17484621
 0.18478332 0.18509331 0.21100529 0.21418395]  max|de|= 0.102  lindep= 0.0503
root 4 converged  |r|= 2.07e-05  e= 0.173634677796317  max|de|= 2.78e-17
root 7 converged  |r|= 1.64e-05  e= 0.18509331279189375  max|de|= 8.33e-17
davidson 8 10  |r|= 1.28  e= [0.01076844 0.09691591 0.1648797  0.17359228 0.17363468 0.17484621
 0.18478332 0.18509331 0.21100529 0.21418395]  max|de|= -1.32e-15  lindep= 0.23
Old state -> New state
    2     ->     0 
    3     ->     1 
    4     ->     2 
    5     ->     3 
    6     ->     4 
    7     ->     5 
    9     ->     7 
davidson 9 18  |r|= 0.758  e= [0.16487988 0.17359204 0.17363467 0.17484628 0.18475274 0.18509332
 0.18539323 0.20517357 0.21115084 0.21505138]  max|de|= -0.00901  lindep= 0.294
Old state -> New state
    7     ->     0 
    6     ->     1 
    0     ->     2 
    0     ->     3 
    1     ->     4 
    2     ->     5 
    3     ->     6 
    4     ->     7 
    5     ->     8 
    8     ->     9 
davidson 10 28  |r|= 1.01  e= [0.09503605 0.16117685 0.16487982 0.1683721  0.17359209 0.17363467
 0.17484609 0.18478451 0.18509331 0.211015  ]  max|de|= -0.11  lindep= 0.145
Old state -> New state
    1     ->     0 
    0     ->     1 
    0     ->     2 
    9     ->     3 
    2     ->     4 
    4     ->     5 
    5     ->     6 
    6     ->     7 
    2     ->     8 
    7     ->     9 
davidson 11 38  |r|=  1.1  e= [0.04089443 0.04703388 0.12460333 0.15868739 0.16487984 0.17359205
 0.17363468 0.17484622 0.17869193 0.18478265]  max|de|= -0.12  lindep= 0.104
Old state -> New state
    1     ->     0 
    0     ->     1 
    0     ->     2 
    4     ->     3 
    5     ->     4 
    6     ->     5 
    7     ->     6 
    9     ->     7 
    3     ->     9 
davidson 12 48  |r|= 1.24  e= [0.08364557 0.10662943 0.15419148 0.16487987 0.1735921  0.17363467
 0.17484612 0.18478293 0.18509331 0.21096507]  max|de|= 0.113  lindep= 0.119
Old state -> New state
    1     ->     0 
    3     ->     1 
    4     ->     3 
    5     ->     4 
    6     ->     5 
    7     ->     6 
    8     ->     7 
    0     ->     8 
root 4 converged  |r|= 1.32e-06  e= 0.17363467226706167  max|de|= -2.33e-10
root 7 converged  |r|= 4.91e-06  e= 0.18509330940947202  max|de|= 5.94e-10
davidson 13 57  |r|= 1.17  e= [0.02907604 0.16487987 0.1690539  0.17359205 0.17363467 0.1748461
 0.18478313 0.18509331 0.20167244 0.21093546]  max|de|= 0.118  lindep= 0.23
Old state -> New state
    1     ->     0 
    0     ->     1 
    0     ->     2 
    2     ->     3 
    0     ->     4 
    1     ->     5 
    3     ->     6 
    4     ->     7 
    5     ->     8 
    6     ->     9 
davidson 14 64  |r|=  1.2  e= [0.02344367 0.02619723 0.04917002 0.11019807 0.14806396 0.16487987
 0.1735921  0.17363467 0.17484612 0.18478306]  max|de|= -0.141  lindep= 0.0493
Old state -> New state
    5     ->     1 
    5     ->     2 
    6     ->     3 
    7     ->     4 
    8     ->     5 
    9     ->     6 
    0     ->     7 
    2     ->     8 
    1     ->     9 
davidson 15 71  |r|=  1.2  e= [0.01472061 0.16487986 0.17214467 0.17359211 0.17363468 0.17484613
 0.18478286 0.18509331 0.20754643 0.21078586]  max|de|= 0.185  lindep= 0.0264
Old state -> New state
    5     ->     1 
    0     ->     2 
    9     ->     3 
    1     ->     4 
    3     ->     5 
    4     ->     6 
    5     ->     7 
    6     ->     8 
    7     ->     9 
davidson 16 81  |r|= 1.27  e= [0.00433424 0.03296186 0.11296939 0.15391376 0.16487987 0.1735921
 0.17363467 0.17484612 0.18478288 0.18509331]  max|de|= -0.142  lindep= 0.0281
root 4 converged  |r|= 1.27e-07  e= 0.16487986920708755  max|de|= 1.39e-16
root 5 converged  |r|= 1.64e-05  e= 0.17359209784498547  max|de|= -3.61e-16
root 6 converged  |r|= 4.66e-07  e= 0.1736346717896791  max|de|= -2.5e-16
root 7 converged  |r|= 5.23e-07  e= 0.17484611959280957  max|de|= -5.55e-17
root 9 converged  |r|= 1.13e-06  e= 0.18509330788256093  max|de|= 1.11e-16
davidson 17 10  |r|= 1.27  e= [0.00433424 0.03296186 0.11296939 0.15391376 0.16487987 0.1735921
 0.17363467 0.17484612 0.18478288 0.18509331]  max|de|= -3.5e-15  lindep= 0.207
Old state -> New state
    1     ->     2 
    4     ->     3 
    5     ->     4 
    6     ->     5 
    7     ->     6 
    8     ->     7 
    9     ->     8 
    3     ->     9 
davidson 18 15  |r|= 1.56  e= [0.01443195 0.05338858 0.0859204  0.16487987 0.17359211 0.17363467
 0.17484612 0.18478285 0.18509331 0.24901334]  max|de|= 0.0951  lindep= 0.166
Old state -> New state
    0     ->     1 
    1     ->     2 
davidson 19 21  |r|= 1.19  e= [0.06569654 0.08172263 0.12627648 0.16487987 0.17359212 0.17363467
 0.17484612 0.18478288 0.18509331 0.24222646]  max|de|= 0.0729  lindep= 0.287
Old state -> New state
    1     ->     2 
    3     ->     7 
    7     ->     8 
    8     ->     9 
davidson 20 27  |r|= 1.24  e= [0.03921484 0.08470599 0.08743241 0.16487987 0.1735921  0.17363467
 0.17484613 0.18250056 0.18478294 0.18509331]  max|de|= -0.0265  lindep= 0.175
Old state -> New state
    0     ->     1 
    3     ->     2 
    4     ->     3 
    5     ->     4 
    6     ->     5 
    8     ->     6 
    9     ->     7 
    2     ->     8 
    2     ->     9 
davidson 21 34  |r|= 1.28  e= [0.01080514 0.10634752 0.16487987 0.17359212 0.17363467 0.17484612
 0.18478288 0.18509331 0.22243645 0.27203218]  max|de|= 0.185  lindep= 0.142
Old state -> New state
    2     ->     1 
root 5 converged  |r|= 2.75e-07  e= 0.17484612185474235  max|de|= 6.14e-10
root 6 converged  |r|= 4.9e-06  e= 0.18478288025272308  max|de|= 8.73e-10
davidson 22 39  |r|= 1.24  e= [0.0143844  0.13966886 0.16487987 0.17359211 0.17363467 0.17484612
 0.18478288 0.18509331 0.22079805 0.30028495]  max|de|= 0.0283  lindep= 0.0611
Old state -> New state
    0     ->     1 
    2     ->     3 
    3     ->     4 
    4     ->     5 
    5     ->     6 
    6     ->     7 
    7     ->     8 
    2     ->     9 
davidson 23 44  |r|= 0.964  e= [0.00323428 0.01779563 0.16439182 0.16487976 0.17359213 0.17363467
 0.17484612 0.18478286 0.18509331 0.18801394]  max|de|= 0.0231  lindep= 0.0686
Old state -> New state
    2     ->     1 
    3     ->     2 
    4     ->     3 
    5     ->     4 
    6     ->     5 
    7     ->     6 
    8     ->     7 
    1     ->     8 
davidson 24 52  |r|= 1.07  e= [0.04617159 0.14349779 0.16487987 0.17359212 0.17363467 0.17484612
 0.18478288 0.18509331 0.20320019 0.22133533]  max|de|= 0.185  lindep= 0.104
Old state -> New state
    0     ->     1 
    9     ->     8 
    1     ->     9 
root 2 converged  |r|= 5.76e-08  e= 0.16487986804892965  max|de|= -4.01e-10
root 3 converged  |r|= 9.11e-08  e= 0.1735921165529174  max|de|= 4.38e-10
root 7 converged  |r|= 1.75e-07  e= 0.18509330834090834  max|de|= 1.1e-10
davidson 25 58  |r|= 1.18  e= [0.0248861  0.08834206 0.16487987 0.17359212 0.17363467 0.17484612
 0.18478287 0.18509331 0.21527348 0.25275619]  max|de|= 0.109  lindep= 0.0678
Old state -> New state
    2     ->     3 
    3     ->     4 
    4     ->     5 
    5     ->     6 
    6     ->     7 
    7     ->     8 
    8     ->     9 
davidson 26 63  |r|= 1.13  e= [0.01215279 0.1223851  0.16298823 0.16487988 0.17359212 0.17363467
 0.17484612 0.18478287 0.18509331 0.21385965]  max|de|= 0.034  lindep= 0.0455
Old state -> New state
    3     ->     1 
    4     ->     2 
    5     ->     3 
    6     ->     4 
    7     ->     5 
    8     ->     6 
    9     ->     8 
    1     ->     9 
root 5 converged  |r|= 9.21e-07  e= 0.1847828744519666  max|de|= 6.37e-10
davidson 27 68  |r|= 0.805  e= [0.00953756 0.16487987 0.17359212 0.17363467 0.17484612 0.18478287
 0.18509331 0.18523616 0.21364878 0.23754492]  max|de|= 0.115  lindep= 0.02
Old state -> New state
    8     ->     7 
root 1 converged  |r|= 4.04e-08  e= 0.1648798676860949  max|de|= -2.03e-10
davidson 28 73  |r|= 0.861  e= [0.07957085 0.16487987 0.17359212 0.17363467 0.17484612 0.18478287
 0.18509331 0.20858005 0.21429181 0.23069331]  max|de|= 0.07  lindep= 0.111
Old state -> New state
    8     ->     7 
root 6 converged  |r|= 8.72e-08  e= 0.18509330833698856  max|de|= -3.1e-12
davidson 29 77  |r|= 0.956  e= [0.07278101 0.16487987 0.17359212 0.17363467 0.17484612 0.18478287
 0.18509331 0.21290077 0.21850843 0.25329943]  max|de|= 0.0226  lindep= 0.0212
davidson 30 10  |r|= 0.956  e= [0.07278101 0.16487987 0.17359212 0.17363467 0.17484612 0.18478287
 0.18509331 0.21290077 0.21850843 0.25329943]  max|de|= -1.12e-12  lindep= 0.263
Old state -> New state
    8     ->     1 
    1     ->     2 
    2     ->     3 
    3     ->     4 
    4     ->     5 
    7     ->     6 
    5     ->     7 
    6     ->     8 
    8     ->     9 
davidson 31 14  |r|= 1.26  e= [0.07278147 0.1348085  0.16487987 0.17359212 0.17363467 0.17484612
 0.18000339 0.18478288 0.18509331 0.22534764]  max|de|= -0.0837  lindep= 0.017
Old state -> New state
    6     ->     0 
    0     ->     1 
    9     ->     2 
    2     ->     3 
    3     ->     4 
    4     ->     5 
    5     ->     6 
    2     ->     7 
    7     ->     8 
    8     ->     9 
davidson 32 19  |r|= 1.51  e= [0.05548491 0.06853499 0.15171031 0.16487987 0.17359212 0.17363467
 0.17484612 0.17975775 0.18478288 0.18509331]  max|de|= -0.125  lindep= 0.136
Old state -> New state
    1     ->     0 
    0     ->     1 
    3     ->     2 
    4     ->     3 
    5     ->     4 
    6     ->     5 
    8     ->     6 
    9     ->     7 
    2     ->     8 
    2     ->     9 
root 3 converged  |r|= 1.4e-07  e= 0.17359211680753103  max|de|= -7.01e-10
davidson 33 25  |r|= 1.21  e= [0.06449771 0.13237095 0.16487987 0.17359212 0.17363467 0.17484612
 0.18478287 0.18509331 0.2084012  0.2143018 ]  max|de|= 0.0769  lindep= 0.0902
Old state -> New state
    8     ->     1 
root 5 converged  |r|= 8.91e-08  e= 0.1748461221062693  max|de|= -6.45e-12
davidson 34 30  |r|= 1.37  e= [0.00874981 0.12903984 0.16487987 0.17359212 0.17363467 0.17484612
 0.18478288 0.18509331 0.21120168 0.21381503]  max|de|= -0.0794  lindep=  0.2
Old state -> New state
    0     ->     1 
root 6 converged  |r|= 5.4e-07  e= 0.18478287418084702  max|de|= -8.9e-10
davidson 35 35  |r|= 1.24  e= [0.00860442 0.06966195 0.16487987 0.17359212 0.17363467 0.17484612
 0.18478287 0.18509331 0.21116473 0.2142168 ]  max|de|= 0.0609  lindep= 0.0903
Old state -> New state
    0     ->     1 
    0     ->     2 
    2     ->     3 
    3     ->     4 
    4     ->     5 
    5     ->     6 
    6     ->     7 
    7     ->     8 
    8     ->     9 
davidson 36 39  |r|= 1.35  e= [0.00207464 0.03333218 0.07041195 0.16487987 0.17359212 0.17363467
 0.17484612 0.18478287 0.18509331 0.2112652 ]  max|de|= 0.0618  lindep= 0.113
Old state -> New state
    3     ->     1 
    3     ->     2 
    4     ->     3 
    5     ->     4 
    6     ->     5 
    7     ->     6 
    8     ->     7 
    9     ->     8 
davidson 37 43  |r|= 1.34  e= [0.00303326 0.15236698 0.16487987 0.17359212 0.17363467 0.17484612
 0.18478287 0.18509331 0.20985084 0.21339293]  max|de|= -0.0125  lindep= 0.0161
Old state -> New state
    2     ->     1 
davidson 38 47  |r|= 1.32  e= [0.00388608 0.16487987 0.16900988 0.17359212 0.17363467 0.17484612
 0.18478287 0.18509331 0.2109039  0.2144325 ]  max|de|= 0.00413  lindep= 0.00994
Old state -> New state
    9     ->     0 
    3     ->     2 
    4     ->     3 
    5     ->     4 
    6     ->     5 
    7     ->     6 
    9     ->     7 
    8     ->     9 
davidson 39 51  |r|= 1.03  e= [0.14181509 0.16487987 0.17359212 0.17363467 0.17484612 0.18478287
 0.18509331 0.2024201  0.21104038 0.21247415]  max|de|= -0.0726  lindep= 0.173
Old state -> New state
    0     ->     1 
    1     ->     2 
    2     ->     3 
    3     ->     4 
    4     ->     5 
    5     ->     6 
    6     ->     7 
davidson 40 55  |r|= 1.04  e= [0.06653744 0.076933   0.16487987 0.17359212 0.17363467 0.17484612
 0.18478287 0.18509331 0.21103089 0.21416096]  max|de|= -0.0753  lindep= 0.0657
Old state -> New state
    2     ->     1 
    3     ->     2 
    4     ->     3 
    5     ->     4 
    6     ->     5 
    7     ->     6 
    8     ->     7 
    9     ->     8 
davidson 41 59  |r|=  1.1  e= [0.01853102 0.16487987 0.17359212 0.17363467 0.17484612 0.18478287
 0.18509331 0.21160257 0.21345072 0.21444747]  max|de|= -0.048  lindep= 0.0818
davidson 42 63  |r|= 1.07  e= [0.10083388 0.16487987 0.17359212 0.17363467 0.17484612 0.18478287
 0.18509331 0.21101997 0.21412899 0.21446757]  max|de|= 0.0823  lindep= 0.128
Old state -> New state
    1     ->     5 
    5     ->     6 
    6     ->     7 
    7     ->     8 
    8     ->     9 
davidson 43 67  |r|= 1.02  e= [0.0933145  0.16487987 0.17359212 0.17363467 0.17484612 0.18264346
 0.18478287 0.18509331 0.21088267 0.21385752]  max|de|= 0.0178  lindep= 0.0537
Old state -> New state
    1     ->     0 
    0     ->     1 
    1     ->     2 
    2     ->     3 
    3     ->     4 
    4     ->     5 
davidson 44 72  |r|= 1.15  e= [0.07003417 0.09264807 0.16487987 0.17359212 0.17363467 0.17484612
 0.18478287 0.18509331 0.21099059 0.21415446]  max|de|= -0.0948  lindep= 0.0421
Old state -> New state
    0     ->     1 
root 6 converged  |r|= 6.28e-08  e= 0.18478287424026812  max|de|= 5.14e-11
davidson 45 76  |r|=  1.3  e= [0.01746866 0.05244524 0.16487987 0.17359212 0.17363467 0.17484612
 0.18478287 0.18509331 0.21092054 0.21415676]  max|de|= -0.0526  lindep= 0.0726
Old state -> New state
    2     ->     0 
    3     ->     1 
    4     ->     2 
    5     ->     3 
    6     ->     4 
    7     ->     5 
    8     ->     6 
    9     ->     7 
    9     ->     8 
    1     ->     9 
davidson 46 80  |r|= 0.0337  e= [0.16487987 0.17359212 0.17363467 0.17484612 0.18478287 0.18509331
 0.21091791 0.21416417 0.21448398 0.2400471 ]  max|de|= 0.188  lindep= 0.312
davidson 47 10  |r|= 0.0337  e= [0.16487987 0.17359212 0.17363467 0.17484612 0.18478287 0.18509331
 0.21091791 0.21416417 0.21448398 0.2400471 ]  max|de|= 4.42e-14  lindep= 0.993
Old state -> New state
    0     ->     1 
    1     ->     2 
    2     ->     3 
    3     ->     4 
    4     ->     5 
    5     ->     6 
    6     ->     7 
    7     ->     8 
    8     ->     9 
davidson 48 14  |r|= 1.34  e= [0.15390938 0.16487987 0.17359212 0.17363467 0.17484612 0.18478287
 0.18509331 0.21091295 0.21417106 0.21448547]  max|de|= -0.011  lindep= 0.41
davidson 49 18  |r|= 1.21  e= [0.06184165 0.16487987 0.17359212 0.17363467 0.17484612 0.18478287
 0.18509331 0.2109193  0.21416241 0.2144841 ]  max|de|= -0.0921  lindep= 0.307
davidson 50 22  |r|= 1.27  e= [0.15689793 0.16487987 0.17359212 0.17363467 0.17484612 0.18478287
 0.18509331 0.21092022 0.21416814 0.21448226]  max|de|= 0.0951  lindep= 0.211
Old state -> New state
    1     ->     0 
davidson 51 26  |r|= 0.281  e= [0.16190217 0.16487987 0.17359212 0.17363467 0.17484612 0.18478287
 0.18509331 0.21091528 0.21416279 0.21448328]  max|de|= -0.00298  lindep= 0.328
Old state -> New state
    8     ->     0 
davidson 52 30  |r|= 1.24  e= [0.0455071  0.16487987 0.17359212 0.17363467 0.17484612 0.18478287
 0.18509331 0.21091501 0.21416292 0.21448289]  max|de|= -0.169  lindep= 0.164
davidson 53 34  |r|= 1.38  e= [0.09307571 0.16487987 0.17359212 0.17363467 0.17484612 0.18478287
 0.18509331 0.210915   0.21416579 0.21448321]  max|de|= 0.0476  lindep= 0.105
Old state -> New state
    8     ->     7 
    7     ->     8 
    8     ->     9 
davidson 54 38  |r|= 1.31  e= [0.00392043 0.16487987 0.17359212 0.17363467 0.17484612 0.18478287
 0.18509331 0.21032508 0.21091851 0.21416577]  max|de|= -0.0892  lindep= 0.0886
Old state -> New state
    1     ->     0 
    2     ->     1 
    3     ->     2 
    4     ->     3 
    5     ->     4 
    6     ->     5 
    8     ->     6 
    9     ->     7 
    0     ->     8 
    7     ->     9 
davidson 55 42  |r|= 0.00933  e= [0.16487987 0.17359212 0.17363467 0.17484612 0.18478287 0.18509331
 0.21091544 0.21416544 0.21448313 0.23961178]  max|de|= 0.211  lindep= 0.158
Old state -> New state
    8     ->     0 
    9     ->     1 
    0     ->     2 
    1     ->     3 
    2     ->     4 
    3     ->     5 
    4     ->     6 
    5     ->     7 
    6     ->     8 
    7     ->     9 
davidson 56 46  |r|=  0.9  e= [0.04189428 0.15841487 0.16487987 0.17359212 0.17363467 0.17484612
 0.18478287 0.18509331 0.21091541 0.21416486]  max|de|= -0.173  lindep= 0.14
Old state -> New state
    2     ->     1 
    3     ->     2 
    4     ->     3 
    5     ->     4 
davidson 57 50  |r|= 0.967  e= [0.03969324 0.16487987 0.17359212 0.17363467 0.17484612 0.17634189
 0.18478287 0.18509331 0.21091549 0.21416507]  max|de|= -0.0022  lindep= 0.112
Old state -> New state
    2     ->     3 
    3     ->     4 
    4     ->     5 
davidson 58 54  |r|= 1.08  e= [0.0357047  0.16487987 0.17332151 0.17359211 0.17363467 0.17484612
 0.18478287 0.18509331 0.21091526 0.21416508]  max|de|= -0.00399  lindep= 0.0542
Old state -> New state
    1     ->     2 
davidson 59 59  |r|=  1.1  e= [0.03608071 0.12765279 0.16487987 0.17359212 0.17363467 0.17484612
 0.18478287 0.18509331 0.21091527 0.21416485]  max|de|= -0.0372  lindep= 0.00603
Old state -> New state
    0     ->     1 
    3     ->     5 
    5     ->     6 
    6     ->     7 
    7     ->     8 
    8     ->     9 
root 3 converged  |r|= 1.52e-07  e= 0.17359211676063624  max|de|= 1.21e-10
davidson 60 63  |r|= 1.09  e= [0.02774646 0.06366919 0.16487987 0.17359212 0.17363467 0.17410831
 0.17484612 0.18478287 0.18509331 0.21091526]  max|de|= 0.0276  lindep= 0.0521
Old state -> New state
    0     ->     1 
    6     ->     5 
    7     ->     6 
    8     ->     7 
    9     ->     8 
    1     ->     9 
davidson 61 67  |r|= 1.13  e= [0.00743548 0.08147963 0.16487987 0.17359212 0.17363467 0.17484612
 0.18478287 0.18509331 0.21091528 0.2141649 ]  max|de|= 0.15  lindep= 0.0648
Old state -> New state
    2     ->     1 
    3     ->     2 
    4     ->     3 
    5     ->     4 
    6     ->     5 
    7     ->     6 
    8     ->     7 
    9     ->     8 
    1     ->     9 
root 7 converged  |r|= 1.42e-06  e= 0.21091527674151822  max|de|= 1.95e-10
davidson 62 71  |r|= 1.04  e= [0.03536024 0.16487987 0.17359212 0.17363467 0.17484612 0.18478287
 0.18509331 0.21091528 0.21416492 0.21448319]  max|de|= 0.133  lindep= 0.101
Old state -> New state
    9     ->     1 
    1     ->     2 
    2     ->     3 
    3     ->     4 
    4     ->     5 
    5     ->     6 
    6     ->     7 
    9     ->     8 
    7     ->     9 
davidson 63 74  |r|= 1.16  e= [0.03520514 0.12411343 0.16487987 0.17359212 0.17363467 0.17484612
 0.18478287 0.18509331 0.19024298 0.21091527]  max|de|= -0.0904  lindep= 0.0206
Old state -> New state
    9     ->     8 
    8     ->     9 
davidson 64 78  |r|= 1.28  e= [0.03529655 0.11832363 0.16487987 0.17359212 0.17363467 0.17484612
 0.18478287 0.18509331 0.21091527 0.21416491]  max|de|= 0.0239  lindep= 0.00506
root 8 converged  |r|= 1.36e-06  e= 0.21091527167869425  max|de|= 1.55e-11
root 9 converged  |r|= 1.35e-06  e= 0.2141649139115599  max|de|= -6.73e-14
davidson 65 10  |r|= 1.28  e= [0.03529655 0.11832363 0.16487987 0.17359212 0.17363467 0.17484612
 0.18478287 0.18509331 0.21091527 0.21416491]  max|de|= 1.55e-11  lindep= 0.305
Old state -> New state
    2     ->     1 
    8     ->     2 
davidson 66 12  |r|= 0.972  e= [0.03554118 0.16487987 0.16601951 0.17359212 0.17363467 0.17484612
 0.18478287 0.18509331 0.21091527 0.21416491]  max|de|= -0.0449  lindep= 0.00193
Old state -> New state
    3     ->     2 
    4     ->     3 
    5     ->     4 
    6     ->     5 
    7     ->     6 
    8     ->     7 
    9     ->     8 
    2     ->     9 
davidson 67 16  |r|= 1.57  e= [0.10201176 0.16487987 0.17359212 0.17363467 0.17484612 0.18478287
 0.18509331 0.21091528 0.21416491 0.32570114]  max|de|= 0.16  lindep= 0.253
Old state -> New state
    0     ->     9 
root 8 converged  |r|= 7.28e-07  e= 0.21416491313838362  max|de|= -9.07e-10
davidson 68 19  |r|= 1.45  e= [0.09655754 0.16487987 0.17359212 0.17363467 0.17484612 0.18478287
 0.18509331 0.21091529 0.21416491 0.31035047]  max|de|= 0.208  lindep= 0.143
Old state -> New state
    0     ->     1 
    1     ->     2 
    2     ->     3 
    3     ->     4 
    4     ->     5 
    5     ->     6 
    6     ->     7 
    7     ->     8 
    8     ->     9 
davidson 69 22  |r|= 1.47  e= [0.02822236 0.10080707 0.16487987 0.17359212 0.17363467 0.17484612
 0.18478287 0.18509331 0.21091529 0.21416491]  max|de|= -0.0683  lindep= 0.181
Old state -> New state
    2     ->     1 
davidson 70 25  |r|=  1.3  e= [0.02484207 0.16143419 0.16487987 0.17359212 0.17363467 0.17484612
 0.18478287 0.18509331 0.21091529 0.21416491]  max|de|= -0.00345  lindep= 0.0494
Old state -> New state
    0     ->     1 
davidson 71 27  |r|= 1.58  e= [0.01495248 0.07031222 0.16487987 0.17359212 0.17363467 0.17484612
 0.18478287 0.18509331 0.21091528 0.21416491]  max|de|= 0.0455  lindep= 0.0933
Old state -> New state
    2     ->     1 
    3     ->     2 
    4     ->     3 
    5     ->     4 
    6     ->     5 
    7     ->     6 
    8     ->     7 
    9     ->     8 
    0     ->     9 
davidson 72 29  |r|= 0.937  e= [0.09649852 0.16487987 0.17359212 0.17363467 0.17484612 0.18478287
 0.18509331 0.21091528 0.21416491 0.25236706]  max|de|= 0.237  lindep= 0.289
Old state -> New state
    7     ->     0 
    0     ->     1 
    1     ->     2 
    2     ->     3 
    3     ->     4 
    4     ->     5 
    5     ->     6 
    6     ->     7 
    7     ->     8 
    8     ->     9 
root 8 converged  |r|= 2.88e-07  e= 0.21091528406148288  max|de|= -5.48e-10
davidson 73 31  |r|= 1.31  e= [0.00407204 0.10261057 0.16487987 0.17359212 0.17363467 0.17484612
 0.18478287 0.18509331 0.21091528 0.21416491]  max|de|= -0.207  lindep= 0.0909
Old state -> New state
    0     ->     1 
root 9 converged  |r|= 5.94e-07  e= 0.21416490902472352  max|de|= -8.18e-10
davidson 74 33  |r|=  1.3  e= [0.00228175 0.06696944 0.16487987 0.17359212 0.17363467 0.17484612
 0.18478287 0.18509331 0.21091528 0.21416491]  max|de|= 0.0629  lindep= 0.0169
Old state -> New state
    2     ->     1 
    3     ->     2 
    4     ->     3 
    5     ->     4 
    6     ->     5 
    7     ->     6 
    8     ->     7 
    9     ->     8 
    1     ->     9 
davidson 75 35  |r|= 1.17  e= [0.09791476 0.16487987 0.17359212 0.17363467 0.17484612 0.18478287
 0.18509331 0.21091529 0.21416491 0.24783419]  max|de|= 0.181  lindep= 0.189
Old state -> New state
    0     ->     1 
    1     ->     2 
    2     ->     3 
    3     ->     4 
    4     ->     5 
    5     ->     6 
    6     ->     7 
    7     ->     8 
    8     ->     9 
root 8 converged  |r|= 3.42e-07  e= 0.2109152870403262  max|de|= 3.69e-10
davidson 76 37  |r|= 1.19  e= [0.03529826 0.08010237 0.16487987 0.17359212 0.17363467 0.17484612
 0.18478287 0.18509331 0.21091529 0.21416491]  max|de|= -0.0626  lindep= 0.167
Old state -> New state
    2     ->     0 
    3     ->     1 
    4     ->     2 
    5     ->     3 
    6     ->     4 
    7     ->     5 
    8     ->     6 
    9     ->     7 
    9     ->     8 
    0     ->     9 
davidson 77 39  |r|= 0.994  e= [0.16487987 0.17359212 0.17363467 0.17484612 0.18478287 0.18509331
 0.2109153  0.21363884 0.21416491 0.23424585]  max|de|= 0.199  lindep= 0.163
Old state -> New state
    9     ->     0 
    0     ->     1 
    1     ->     2 
    2     ->     3 
    3     ->     4 
    4     ->     5 
    5     ->     6 
    6     ->     7 
    6     ->     8 
    8     ->     9 
root 9 converged  |r|= 5.09e-07  e= 0.2141649119194135  max|de|= -4.04e-10
davidson 78 43  |r|= 1.28  e= [0.08483422 0.16487987 0.17359212 0.17363467 0.17484612 0.18478287
 0.18509331 0.21091533 0.21224865 0.21416491]  max|de|= -0.149  lindep= 0.222
Old state -> New state
    1     ->     0 
    2     ->     1 
    3     ->     2 
    4     ->     3 
    5     ->     4 
    6     ->     5 
    7     ->     6 
    9     ->     7 
    9     ->     8 
    8     ->     9 
davidson 79 46  |r|= 0.589  e= [0.16487987 0.17359212 0.17363467 0.17484612 0.18478287 0.18509331
 0.21091529 0.21416491 0.21522771 0.2981534 ]  max|de|= 0.0859  lindep= 0.255
Old state -> New state
    9     ->     0 
    6     ->     1 
    9     ->     2 
    0     ->     3 
    1     ->     4 
    2     ->     5 
    3     ->     6 
    4     ->     7 
    5     ->     8 
    6     ->     9 
root 9 converged  |r|= 6.01e-07  e= 0.21091528951179842  max|de|= 3.7e-10
davidson 80 48  |r|= 1.13  e= [0.03493498 0.06828945 0.1181415  0.16487987 0.17359212 0.17363467
 0.17484612 0.18478287 0.18509331 0.21091529]  max|de|= -0.263  lindep= 0.156
Old state -> New state
    3     ->     0 
    3     ->     1 
    3     ->     2 
    4     ->     3 
    5     ->     4 
    6     ->     5 
    7     ->     6 
    8     ->     7 
    9     ->     8 
    0     ->     9 
davidson 81 51  |r|= 1.09  e= [0.14387833 0.16487987 0.1680702  0.17359212 0.17363467 0.17484612
 0.18478287 0.18509331 0.21091529 0.21416491]  max|de|= 0.179  lindep= 0.103
Old state -> New state
    2     ->     0 
    3     ->     2 
    4     ->     3 
    5     ->     4 
    6     ->     5 
    7     ->     6 
    8     ->     7 
    9     ->     8 
root 7 converged  |r|= 1.93e-07  e= 0.21091528733995377  max|de|= -8.91e-10
root 8 converged  |r|= 1.17e-07  e= 0.21416491162475143  max|de|= -8.49e-10
davidson 82 53  |r|= 0.97  e= [0.15280871 0.16487987 0.17359212 0.17363467 0.17484612 0.18478287
 0.18509331 0.21091529 0.21416491 0.21446747]  max|de|= -0.0153  lindep= 0.0943
Old state -> New state
    1     ->     0 
    2     ->     1 
    3     ->     2 
    4     ->     3 
    5     ->     4 
davidson 83 55  |r|= 0.57  e= [0.16487987 0.17359212 0.17363467 0.17484612 0.18448362 0.18478287
 0.18509331 0.21091529 0.21416491 0.21445878]  max|de|= -0.000299  lindep= 0.0955
Old state -> New state
    4     ->     0 
    0     ->     1 
    1     ->     2 
    2     ->     3 
    3     ->     4 
davidson 84 57  |r|= 1.48  e= [0.0140509  0.16487987 0.17359212 0.17363467 0.17484612 0.18478287
 0.18509331 0.21091529 0.21416491 0.21502045]  max|de|= -0.17  lindep= 0.128
Old state -> New state
    0     ->     1 
    1     ->     2 
    2     ->     3 
    3     ->     4 
    4     ->     5 
    5     ->     6 
    6     ->     7 
    7     ->     8 
    8     ->     9 
davidson 85 59  |r|= 1.42  e= [0.01418949 0.05778247 0.16487987 0.17359212 0.17363467 0.17484612
 0.18478287 0.18509331 0.21091529 0.21416491]  max|de|= 0.0437  lindep= 0.0239
Old state -> New state
    2     ->     0 
    3     ->     1 
    4     ->     2 
    5     ->     3 
    6     ->     4 
    7     ->     5 
    8     ->     6 
    9     ->     7 
    9     ->     8 
    1     ->     9 
davidson 86 61  |r|= 0.226  e= [0.16487987 0.17359212 0.17363467 0.17484612 0.18478287 0.18509331
 0.21091528 0.21416491 0.21445781 0.24366976]  max|de|= 0.186  lindep= 0.359
Old state -> New state
    8     ->     0 
    0     ->     1 
    0     ->     2 
    1     ->     3 
    2     ->     4 
    3     ->     5 
    4     ->     6 
    5     ->     7 
    6     ->     8 
    7     ->     9 
root 8 converged  |r|= 6.57e-07  e= 0.21091528341756532  max|de|= -1.06e-10
davidson 87 63  |r|= 1.37  e= [0.00979417 0.09359535 0.16487987 0.17359212 0.17363467 0.17484612
 0.18478287 0.18509331 0.21091528 0.21416491]  max|de|= -0.205  lindep= 0.127
Old state -> New state
    2     ->     1 
    3     ->     2 
    4     ->     3 
    5     ->     4 
davidson 88 65  |r|=  1.2  e= [0.01053201 0.16487986 0.17359212 0.17363467 0.17484613 0.17653797
 0.18478287 0.18509331 0.21091546 0.21416491]  max|de|= 0.00169  lindep= 0.0288
Old state -> New state
    1     ->     2 
    2     ->     3 
    3     ->     4 
    4     ->     5 
    8     ->     9 
davidson 89 71  |r|= 1.29  e= [0.02772341 0.15638933 0.16487986 0.17359212 0.17363467 0.17484612
 0.18478287 0.18509331 0.18986299 0.21091506]  max|de|= -0.0211  lindep= 0.136
Old state -> New state
    2     ->     1 
    9     ->     8 
    8     ->     9 
root 3 converged  |r|= 2.93e-06  e= 0.1735921196067324  max|de|= 3.57e-10
davidson 90 79  |r|= 1.32  e= [0.08926277 0.1270349  0.16487989 0.17359212 0.17363467 0.17484612
 0.18478287 0.18509331 0.21091557 0.21416491]  max|de|= 0.0615  lindep= 0.0873
root 5 converged  |r|= 8.44e-07  e= 0.17484612183409337  max|de|= 1.07e-10
root 6 converged  |r|= 1.06e-06  e= 0.18478287446887393  max|de|= 4.68e-10
davidson 91 10  |r|= 1.32  e= [0.08926272 0.12703546 0.16487987 0.17359212 0.17363467 0.17484612
 0.18478287 0.18509331 0.21091559 0.21416491]  max|de|= 5.57e-07  lindep= 0.258
Old state -> New state
    1     ->     0 
    0     ->     1 
    8     ->     9 
davidson 92 13  |r|= 1.35  e= [0.01666721 0.07445839 0.16487987 0.17359212 0.17363467 0.17484613
 0.18478287 0.18509331 0.19082347 0.21091607]  max|de|= -0.11  lindep= 0.236
Old state -> New state
    9     ->     0 
    0     ->     1 
    9     ->     8 
    8     ->     9 
root 3 converged  |r|= 1.03e-06  e= 0.17359211863485155  max|de|= -1.9e-10
davidson 93 20  |r|= 1.47  e= [0.01538683 0.12054855 0.16487987 0.17359212 0.17363467 0.17484612
 0.18478287 0.18509331 0.2109152  0.21416491]  max|de|= -0.196  lindep= 0.268
Old state -> New state
    0     ->     1 
root 5 converged  |r|= 7.47e-07  e= 0.17484612089733073  max|de|= -4.21e-10
davidson 94 26  |r|= 1.43  e= [0.02772888 0.06026386 0.16487986 0.17359212 0.17363467 0.17484612
 0.18478287 0.18509331 0.21091378 0.21416491]  max|de|= 0.0449  lindep= 0.268
Old state -> New state
    3     ->     4 
    4     ->     5 
    5     ->     6 
    6     ->     7 
    7     ->     8 
    8     ->     9 
root 7 converged  |r|= 3.35e-07  e= 0.18478287411478092  max|de|= 7.66e-10
davidson 95 30  |r|= 1.37  e= [0.01579424 0.02371865 0.16487987 0.17225387 0.17359212 0.17363467
 0.17484612 0.18478287 0.18509331 0.21091496]  max|de|= -0.0365  lindep= 0.136
Old state -> New state
    0     ->     1 
    4     ->     3 
    5     ->     4 
    6     ->     5 
    7     ->     6 
    8     ->     7 
    9     ->     8 
    1     ->     9 
davidson 96 36  |r|= 1.38  e= [0.01216848 0.10822778 0.16487987 0.17359212 0.17363467 0.17484612
 0.18478287 0.18509331 0.21091559 0.21416491]  max|de|= 0.19  lindep= 0.0314
Old state -> New state
    2     ->     1 
    3     ->     2 
    4     ->     3 
    5     ->     4 
    6     ->     5 
    7     ->     6 
    8     ->     7 
root 1 converged  |r|= 1.29e-07  e= 0.16487986711711336  max|de|= -9.52e-10
root 2 converged  |r|= 1.45e-07  e= 0.17359211703262156  max|de|= 7.29e-10
root 4 converged  |r|= 1.64e-07  e= 0.1748461219470688  max|de|= 4.84e-11
root 9 converged  |r|= 1.72e-07  e= 0.21416490994213622  max|de|= -8.1e-10
davidson 97 39  |r|= 1.26  e= [0.0030709  0.16487987 0.17359212 0.17363467 0.17484612 0.18478287
 0.18509331 0.2032247  0.21091579 0.21416491]  max|de|= -0.0091  lindep= 0.0357
Old state -> New state
    2     ->     5 
    5     ->     6 
    6     ->     7 
davidson 98 42  |r|= 1.27  e= [0.02817713 0.16487987 0.17359212 0.17363467 0.17484612 0.17526422
 0.18478287 0.18509331 0.21091542 0.21416491]  max|de|= 0.0251  lindep= 0.133
Old state -> New state
    0     ->     1 
    0     ->     2 
    1     ->     3 
    2     ->     4 
    3     ->     5 
    4     ->     6 
    6     ->     7 
    7     ->     8 
    8     ->     9 
root 3 converged  |r|= 1.59e-07  e= 0.1648798684729147  max|de|= 1.88e-11
davidson 99 47  |r|=  1.4  e= [0.01061855 0.06355538 0.08026699 0.16487987 0.17359212 0.17363467
 0.17484612 0.18478287 0.18509331 0.20047933]  max|de|= 0.0521  lindep= 0.0714
/home/yangjunjie/packages/pyscf/pyscf-main/pyscf/tdscf/rhf.py:1005: RuntimeWarning: invalid value encountered in sqrt
  norm = numpy.sqrt(.5/norm)  # normalize to 0.5 for alpha spin
    CPU time for TDDFT   1501.46 sec, wall time     53.90 sec
TD-SCF states [0, 1, 2, 4, 6, 9] not converged.
Excited State energies (eV)
[0.28894552 1.72943006 2.18417601 4.48660975 4.7236821  4.72484008
 4.75780531 5.02819812 5.03664546 5.45532046]
