 
:: initializing oneAPI environment ...
   slurm_script: BASH_VERSION = 4.2.46(1)-release
   args: Using "$@" for setvars.sh arguments: --force
:: advisor -- latest
:: ccl -- latest
:: clck -- latest
:: compiler -- latest
:: dal -- latest
:: debugger -- latest
:: dev-utilities -- latest
:: dnnl -- latest
:: dpcpp-ct -- latest
:: dpl -- latest
:: inspector -- latest
:: intelpython -- latest
:: ipp -- latest
:: ippcp -- latest
:: ipp -- latest
:: itac -- latest
:: mkl -- latest
:: mpi -- latest
:: tbb -- latest
:: vpl -- latest
:: vtune -- latest
:: oneAPI environment initialized ::
 
SLURM_CPUS_PER_TASK = 28
SLURM_MEM_PER_NODE = 127949
#INFO: **** input file is /home/yangjunjie/work/py-ch3-cl/work/step_-21/main.py ****
import sys
import pyscf
from pyscf import tdscf

def main(xyz_file, basis="631g*", xc="b3lyp", output="ene.out"):
    xyz = None

    with open(xyz_file, "r") as xyz:
        xyz = xyz.readlines()[2:]
        xyz = "".join(xyz)

    mol = pyscf.gto.Mole()
    mol.atom = xyz
    mol.basis = basis
    mol.verbose = 5
    mol.build()

    if xc is not None and xc != "hf":
        mf = pyscf.scf.RKS(mol)
        mf.xc = xc
        mf.kernel()
    else:
        mf = pyscf.scf.RHF(mol)
        mf.kernel()

    ene_mf = mf.e_tot

    tda = pyscf.tdscf.TDA(mf)
    tda.nstates = 10
    tda.kernel()
    ene_tda = tda.e[:5]
    dip_tda = tda.transition_dipole()[:5]

    rpa = pyscf.tdscf.RPA(mf)
    rpa.nstates = 10
    rpa.kernel()
    ene_rpa = rpa.e[:5]
    dip_rpa = rpa.transition_dipole()[:5]

    with open(output, "w") as f:
        f.write(f"RKS energy: {ene_mf: 12.8f}\n")
        f.write("TDA results:\n")
        for i, (ene, dip) in enumerate(zip(ene_tda, dip_tda)):
            f.write(f" {i:2d} {ene: 12.8f} {dip[0]: 12.8f} {dip[1]: 12.8f} {dip[2]: 12.8f}\n")
        
        f.write("\nRPA results:\n")
        for i, (ene, dip) in enumerate(zip(ene_rpa, dip_rpa)):
            f.write(f" {i:2d} {ene: 12.8f} {dip[0]: 12.8f} {dip[1]: 12.8f} {dip[2]: 12.8f}\n")

if __name__ == "__main__":
    xyz = sys.argv[1]
    main(xyz, basis="631g*", xc="b3lyp", output="out.log")
#INFO: ******************** input file end ********************


System: uname_result(system='Linux', node='pauling047', release='3.10.0-327.36.3.el7.x86_64', version='#1 SMP Thu Oct 20 04:56:07 EDT 2016', machine='x86_64')  Threads 28
Python 3.9.7 (default, Oct 27 2021, 01:23:21) 
[GCC 9.3.0]
numpy 1.21.2  scipy 1.6.2
Date: Tue Sep 27 23:11:19 2022
PySCF version 2.0.1
PySCF path  /home/yangjunjie/packages/pyscf/pyscf-main
GIT ORIG_HEAD 14b880cdc4bf7bb64f3989a147c0b04622efc498
GIT HEAD (branch master) 9d5b5bd309d1cc55fbd1a0ec76e26b5b0c7f76af

[ENV] PYSCF_MAX_MEMORY 127949
[ENV] PYSCF_TMPDIR /scratch/global/yangjunjie/
[CONFIG] conf_file /home/yangjunjie/.pyscf_conf.py
[INPUT] verbose = 5
[INPUT] max_memory = 127949 
[INPUT] num. atoms = 16
[INPUT] num. electrons = 68
[INPUT] charge = 0
[INPUT] spin (= nelec alpha-beta = 2S) = 0
[INPUT] symmetry False subgroup None
[INPUT] Mole.unit = angstrom
[INPUT]  1 C      0.000000010000   1.174743090000   1.174791830000 AA    0.000000018897   2.219942706825   2.220034812077 Bohr
[INPUT]  2 C      0.000000000000   1.179055340000   2.562734220000 AA    0.000000000000   2.228091678306   4.842865805851 Bohr
[INPUT]  3 C     -0.000000010000  -0.014539870000   3.249159420000 AA   -0.000000018897  -0.027476372187   6.140021438851 Bohr
[INPUT]  4 C     -0.000000010000  -1.190791820000   2.536074600000 AA   -0.000000018897  -2.250270411172   4.792486425466 Bohr
[INPUT]  5 C      0.000000000000  -1.157265070000   1.152592090000 AA    0.000000000000  -2.186914035826   2.178083383440 Bohr
[INPUT]  6 N      0.000000010000   0.014647320000   0.472824860000 AA    0.000000018897   0.027679423259   0.893509490286 Bohr
[INPUT]  7 C      0.000000000000   0.004124690000  -2.238359600000 AA    0.000000000000   0.007794534449  -4.229886612291 Bohr
[INPUT]  8 H      0.000000020000   2.062366660000   0.591116570000 AA    0.000000037795   3.897308155834   1.117048424992 Bohr
[INPUT]  9 H      0.000000000000   2.150190190000   3.081923750000 AA    0.000000000000   4.063270574827   5.823991824293 Bohr
[INPUT] 10 H     -0.000000020000  -0.025049670000   4.343907810000 AA   -0.000000037795  -0.047337015811   8.208796071259 Bohr
[INPUT] 11 H     -0.000000020000  -2.174480600000   3.037481870000 AA   -0.000000037795  -4.109172797180   5.740008842632 Bohr
[INPUT] 12 H      0.000000000000  -2.034479600000   0.546805350000 AA    0.000000000000  -3.844609250015   1.033312354947 Bohr
[INPUT] 13 H     -0.000000030000   1.037171050000  -1.905283780000 AA   -0.000000056692   1.959969228828  -3.600464533776 Bohr
[INPUT] 14 H     -0.891623330000  -0.502710570000  -1.886743560000 AA   -1.684923899973  -0.949985297224  -3.565428595687 Bohr
[INPUT] 15 H      0.891623350000  -0.502710520000  -1.886743570000 AA    1.684923937767  -0.949985202738  -3.565428614584 Bohr
[INPUT] 16 Cl    -0.000000010000  -0.012008020000  -4.058536340000 AA   -0.000000018897  -0.022691869098  -7.669522149195 Bohr
[INPUT] ---------------- BASIS SET ---------------- 
[INPUT] l, kappa, [nprim/nctr], expnt,             c_1 c_2 ...
[INPUT] N
[INPUT] 0    0    [6    /1   ]  4173.511          0.0018348
                                627.4579          0.013995
                                142.9021          0.068587
                                40.23433          0.232241
                                12.82021          0.46907
                                4.390437          0.360455
[INPUT] 0    0    [3    /1   ]  11.626358         -0.114961
                                2.71628           -0.169118
                                0.772218          1.145852
[INPUT] 0    0    [1    /1   ]  0.2120313            1
[INPUT] 1    0    [3    /1   ]  11.626358         0.06758
                                2.71628           0.323907
                                0.772218          0.740895
[INPUT] 1    0    [1    /1   ]  0.2120313            1
[INPUT] 2    0    [1    /1   ]  0.8                  1
[INPUT] C
[INPUT] 0    0    [6    /1   ]  3047.5249         0.0018347
                                457.36951         0.0140373
                                103.94869         0.0688426
                                29.210155         0.2321844
                                9.286663          0.4679413
                                3.163927          0.362312
[INPUT] 0    0    [3    /1   ]  7.8682724         -0.1193324
                                1.8812885         -0.1608542
                                0.5442493         1.1434564
[INPUT] 0    0    [1    /1   ]  0.1687144            1
[INPUT] 1    0    [3    /1   ]  7.8682724         0.0689991
                                1.8812885         0.316424
                                0.5442493         0.7443083
[INPUT] 1    0    [1    /1   ]  0.1687144            1
[INPUT] 2    0    [1    /1   ]  0.8                  1
[INPUT] Cl
[INPUT] 0    0    [6    /1   ]  25180.1           0.001833
                                3780.35           0.014034
                                860.474           0.069097
                                242.145           0.237452
                                77.3349           0.483034
                                26.247            0.339856
[INPUT] 0    0    [6    /1   ]  491.765           -0.0022974
                                116.984           -0.030714
                                37.4153           -0.112528
                                13.7834           0.045016
                                5.45215           0.589353
                                2.22588           0.465206
[INPUT] 0    0    [3    /1   ]  3.18649           -0.25183
                                1.14427           0.061589
                                0.420377          1.06018
[INPUT] 0    0    [1    /1   ]  0.142657             1
[INPUT] 1    0    [6    /1   ]  491.765           0.0039894
                                116.984           0.030318
                                37.4153           0.12988
                                13.7834           0.327951
                                5.45215           0.453527
                                2.22588           0.252154
[INPUT] 1    0    [3    /1   ]  3.18649           -0.014299
                                1.14427           0.323572
                                0.420377          0.743507
[INPUT] 1    0    [1    /1   ]  0.142657             1
[INPUT] 2    0    [1    /1   ]  0.75                 1
[INPUT] H
[INPUT] 0    0    [3    /1   ]  18.731137         0.0334946
                                2.8253937         0.23472695
                                0.6401217         0.81375733
[INPUT] 0    0    [1    /1   ]  0.1612778            1

nuclear repulsion = 372.475396078242
number of shells = 66
number of NR pGTOs = 272
number of NR cGTOs = 132
basis = 631g*
ecp = {}
CPU time:         0.37


******** <class 'pyscf.dft.rks.RKS'> ********
method = RKS
initial guess = minao
damping factor = 0
level_shift factor = 0
DIIS = <class 'pyscf.scf.diis.CDIIS'>
diis_start_cycle = 1
diis_space = 8
SCF conv_tol = 1e-09
SCF conv_tol_grad = None
SCF max_cycles = 50
direct_scf = True
direct_scf_tol = 1e-13
chkfile to save SCF result = /scratch/global/yangjunjie/tmp1igybpri
max_memory 127949 MB (current use 81 MB)
XC library pyscf.dft.libxc version 5.2.0
    S. Lehtola, C. Steigemann, M. J. Oliveira, and M. A. Marques, SoftwareX 7, 1 (2018)
XC functionals = b3lyp
    P. A. M. Dirac, Math. Proc. Cambridge Philos. Soc. 26, 376 (1930)
    F. Bloch, Z. Phys. 57, 545 (1929)
    A. D. Becke, Phys. Rev. A 38, 3098 (1988)
    C. Lee, W. Yang, and R. G. Parr, Phys. Rev. B 37, 785 (1988)
    B. Miehlich, A. Savin, H. Stoll, and H. Preuss, Chem. Phys. Lett. 157, 200 (1989)
    S. H. Vosko, L. Wilk, and M. Nusair, Can. J. Phys. 58, 1200 (1980)
radial grids: 
    Treutler-Ahlrichs [JCP 102, 346 (1995); DOI:10.1063/1.469408] (M4) radial grids
    
becke partition: Becke, JCP 88, 2547 (1988); DOI:10.1063/1.454033
pruning grids: <function nwchem_prune at 0x7fd056c26ee0>
grids dens level: 3
symmetrized grids: False
atomic radii adjust function: <function treutler_atomic_radii_adjust at 0x7fd056c26e50>
small_rho_cutoff = 1e-07
Set gradient conv threshold to 3.16228e-05
atom C rad-grids = 75, ang-grids = [ 50  50  50  50  50  50  50  50  50  50  50  50  50  50  50  50  50  50
  50  50  50  50  50  86  86  86  86  86  86  86  86  86  86 266 266 266
 266 266 266 266 302 302 302 302 302 302 302 302 302 302 302 302 302 302
 302 302 302 302 302 302 266 266 266 266 266 266 266 266 266 266 266 266
 266 266 266]
atom N rad-grids = 75, ang-grids = [ 50  50  50  50  50  50  50  50  50  50  50  50  50  50  50  50  50  50
  50  50  50  50  50  86  86  86  86  86  86  86  86  86 266 266 266 266
 266 266 266 302 302 302 302 302 302 302 302 302 302 302 302 302 302 302
 302 302 302 302 266 266 266 266 266 266 266 266 266 266 266 266 266 266
 266 266 266]
atom H rad-grids = 50, ang-grids = [ 50  50  50  50  50  50  50  50  50  50  50  50  50  50  86  86  86  86
 266 266 266 266 302 302 302 302 302 302 302 302 302 302 302 302 302 266
 266 266 266 266 266 266 266 266 266 266 266 266 266 266]
atom Cl rad-grids = 80, ang-grids = [ 50  50  50  50  50  50  50  50  50  50  50  50  50  50  50  50  50  50
  50  50  50  50  50  50  86  86  86  86  86  86  86  86  86  86  86  86
  86 350 350 350 350 350 350 350 350 350 434 434 434 434 434 434 434 434
 434 434 434 434 434 434 434 434 434 434 350 350 350 350 350 350 350 350
 350 350 350 350 350 350 350 350]
tot grids = 196530
Drop grids 32903
    CPU time for setting up grids      3.24 sec, wall time      0.12 sec
nelec by numeric integration = 67.97618543915428
    CPU time for vxc      6.09 sec, wall time      0.22 sec
E1 = -1758.1717196081008  Ecoul = 707.0551171316527  Exc = -70.36192877328415
init E= -749.00313517149
cond(S) = 6569.504709580302
    CPU time for initialize scf     16.26 sec, wall time      0.65 sec
  HOMO = -0.295505364610108  LUMO = -0.100983596183403
  mo_energy =
[-1.01597208e+02 -1.43998624e+01 -1.02939457e+01 -1.02918359e+01
 -1.02914378e+01 -1.02887979e+01 -1.02856568e+01 -1.02855474e+01
 -9.53818448e+00 -7.29408168e+00 -7.29286999e+00 -7.29286948e+00
 -1.09019418e+00 -9.37880323e-01 -9.30822791e-01 -8.86466818e-01
 -7.56931529e-01 -7.07314332e-01 -7.06904435e-01 -5.78445806e-01
 -5.29133629e-01 -5.08228816e-01 -4.73130512e-01 -4.72317778e-01
 -4.64260860e-01 -4.58002329e-01 -4.32755953e-01 -4.32531973e-01
 -3.95566439e-01 -3.43729538e-01 -3.42796772e-01 -3.25421277e-01
 -2.99778141e-01 -2.95505365e-01 -1.00983596e-01 -7.81124752e-02
 -3.62757058e-02  4.81843441e-02  6.92970803e-02  7.48734057e-02
  9.08156015e-02  1.09947813e-01  1.21591641e-01  1.23106267e-01
  1.44014805e-01  1.63937066e-01  1.92014085e-01  2.39917993e-01
  2.54730782e-01  2.65730876e-01  3.59736462e-01  3.88620017e-01
  4.01765236e-01  4.15191949e-01  4.15207078e-01  4.26887696e-01
  4.64772612e-01  4.74136727e-01  4.87447238e-01  5.03634258e-01
  5.19317569e-01  5.23517099e-01  5.40761183e-01  5.49255382e-01
  5.54490677e-01  5.55945110e-01  5.57142190e-01  6.08032130e-01
  6.17998024e-01  6.41466246e-01  6.65233524e-01  7.62235298e-01
  7.64107579e-01  7.85098287e-01  7.87041436e-01  7.91902690e-01
  7.97935160e-01  8.04593835e-01  8.27732164e-01  8.44489453e-01
  8.49483175e-01  8.67398741e-01  8.77374060e-01  8.96508574e-01
  9.04904766e-01  9.28407410e-01  9.72370731e-01  1.00363117e+00
  1.03925134e+00  1.07725073e+00  1.12508137e+00  1.13844042e+00
  1.16421142e+00  1.17668914e+00  1.30885198e+00  1.33594612e+00
  1.40615149e+00  1.40897976e+00  1.41061976e+00  1.41974240e+00
  1.44055729e+00  1.45209235e+00  1.62368006e+00  1.62504006e+00
  1.66376387e+00  1.71080649e+00  1.75195650e+00  1.75209188e+00
  1.86264770e+00  1.89049790e+00  1.98187650e+00  2.05859347e+00
  2.06609488e+00  2.09337311e+00  2.10731387e+00  2.11851523e+00
  2.13086493e+00  2.16622730e+00  2.17737546e+00  2.22695116e+00
  2.24571683e+00  2.29541841e+00  2.47699401e+00  2.48151484e+00
  2.59582345e+00  2.61298953e+00  2.61687748e+00  2.64150993e+00
  2.67097091e+00  2.69536780e+00  2.94926702e+00  3.31288029e+00]
nelec by numeric integration = 68.000024341825
    CPU time for vxc      5.94 sec, wall time      0.21 sec
E1 = -1766.2674247982638  Ecoul = 716.5104326281478  Exc = -70.80362123897226
cycle= 1 E= -748.085217330846  delta_E= 0.918  |g|= 0.377  |ddm|= 3.94
    CPU time for cycle= 1      6.44 sec, wall time      0.23 sec
  HOMO = -0.19844474699418  LUMO = 0.0108493871253853
  mo_energy =
[-1.01360010e+02 -1.42046696e+01 -1.01847728e+01 -1.01834074e+01
 -1.01535077e+01 -1.01213218e+01 -1.00934700e+01 -1.00920166e+01
 -9.31556100e+00 -7.07655523e+00 -7.06651605e+00 -7.06650831e+00
 -8.88311205e-01 -7.77490238e-01 -7.56930557e-01 -7.32068059e-01
 -6.20393093e-01 -6.00237802e-01 -5.97102231e-01 -5.12223202e-01
 -4.52182178e-01 -4.33920629e-01 -4.12313140e-01 -4.03735593e-01
 -4.02161594e-01 -3.75956251e-01 -3.60381901e-01 -3.40657898e-01
 -3.36927738e-01 -2.46556084e-01 -2.36527413e-01 -2.28759556e-01
 -2.28098599e-01 -1.98444747e-01  1.08493871e-02  1.76945119e-02
  8.04371696e-02  1.04886998e-01  1.31801503e-01  1.38737868e-01
  1.59041826e-01  1.66756454e-01  1.78573831e-01  1.84376777e-01
  1.84628230e-01  2.14616820e-01  2.72141074e-01  3.13792071e-01
  3.45580748e-01  3.48633685e-01  4.64070657e-01  4.67020498e-01
  4.81593393e-01  5.13124733e-01  5.13379992e-01  5.19178572e-01
  5.35959617e-01  5.61421868e-01  5.70739255e-01  5.91855393e-01
  5.99877381e-01  6.04655012e-01  6.16417870e-01  6.20142401e-01
  6.30028477e-01  6.35256047e-01  6.52330809e-01  6.77732397e-01
  7.10153114e-01  7.18254617e-01  7.50992594e-01  8.39560676e-01
  8.47321742e-01  8.65608870e-01  8.69750954e-01  8.82283189e-01
  9.13058537e-01  9.24498033e-01  9.30063906e-01  9.53268952e-01
  9.60433358e-01  9.75450332e-01  9.78240501e-01  1.00730668e+00
  1.01641770e+00  1.01841537e+00  1.05212943e+00  1.09171699e+00
  1.10513586e+00  1.14412789e+00  1.18477202e+00  1.23825499e+00
  1.24468752e+00  1.28878733e+00  1.41165581e+00  1.41436121e+00
  1.47522496e+00  1.50370432e+00  1.51547346e+00  1.52608192e+00
  1.53680728e+00  1.56573776e+00  1.73555013e+00  1.73669585e+00
  1.76180601e+00  1.80188689e+00  1.86672448e+00  1.87488197e+00
  1.96770072e+00  1.99316173e+00  2.10133269e+00  2.17300253e+00
  2.18138155e+00  2.19965595e+00  2.22487875e+00  2.22961883e+00
  2.24543616e+00  2.27078791e+00  2.28133634e+00  2.33640059e+00
  2.36810950e+00  2.40576977e+00  2.58844055e+00  2.58941248e+00
  2.71226913e+00  2.73060903e+00  2.74972888e+00  2.76775478e+00
  2.79089281e+00  2.83322055e+00  3.07935357e+00  3.44462746e+00]
nelec by numeric integration = 68.00002299240025
    CPU time for vxc      6.24 sec, wall time      0.23 sec
E1 = -1758.7968464677444  Ecoul = 708.4597613299263  Exc = -70.22526944995256
cycle= 2 E= -748.086958509528  delta_E= -0.00174  |g|= 0.394  |ddm|= 0.964
    CPU time for cycle= 2      6.75 sec, wall time      0.25 sec
  HOMO = -0.261601323916746  LUMO = -0.0341262651433708
  mo_energy =
[-1.01471839e+02 -1.43572502e+01 -1.02099858e+01 -1.02094541e+01
 -1.02067573e+01 -1.02010077e+01 -1.02007528e+01 -1.01956523e+01
 -9.40627322e+00 -7.16917250e+00 -7.15938964e+00 -7.15937989e+00
 -9.47204460e-01 -8.15768314e-01 -8.11754892e-01 -7.70558908e-01
 -6.47940089e-01 -6.37936670e-01 -6.34690530e-01 -5.38731415e-01
 -4.86416267e-01 -4.77289141e-01 -4.40057949e-01 -4.20372593e-01
 -4.18232119e-01 -4.14512919e-01 -4.03782559e-01 -3.75385985e-01
 -3.74961901e-01 -2.98140471e-01 -2.71046992e-01 -2.65155022e-01
 -2.64782224e-01 -2.61601324e-01 -3.41262651e-02 -1.61503026e-02
  5.79518214e-02  8.53374307e-02  1.21960467e-01  1.28131760e-01
  1.39643793e-01  1.48069422e-01  1.56263875e-01  1.73926246e-01
  1.76521500e-01  2.06476407e-01  2.43366819e-01  2.87218287e-01
  3.13701136e-01  3.19414259e-01  4.36173325e-01  4.43121118e-01
  4.50031117e-01  4.86917732e-01  4.87213798e-01  4.87852816e-01
  5.05475894e-01  5.27242040e-01  5.49755430e-01  5.68825948e-01
  5.73535826e-01  5.78385100e-01  5.81645290e-01  5.94081571e-01
  5.95661468e-01  6.05550962e-01  6.13548907e-01  6.49192479e-01
  6.82479465e-01  6.82666795e-01  7.23788815e-01  8.12247036e-01
  8.17363089e-01  8.39550833e-01  8.43856008e-01  8.50730011e-01
  8.87103808e-01  8.88448487e-01  9.06939915e-01  9.23038519e-01
  9.27789542e-01  9.36967742e-01  9.38094164e-01  9.79882347e-01
  9.80974226e-01  9.85651785e-01  1.01811591e+00  1.06800723e+00
  1.08182641e+00  1.11732129e+00  1.16184357e+00  1.20590116e+00
  1.21110424e+00  1.24057218e+00  1.37026122e+00  1.37931452e+00
  1.45386877e+00  1.47188326e+00  1.47198620e+00  1.47443766e+00
  1.50039782e+00  1.51391845e+00  1.71331822e+00  1.71387830e+00
  1.71916853e+00  1.76756086e+00  1.81597383e+00  1.82542454e+00
  1.92296532e+00  1.95736177e+00  2.05549014e+00  2.13035978e+00
  2.13140384e+00  2.15961636e+00  2.17318291e+00  2.18404184e+00
  2.21793465e+00  2.25317840e+00  2.26318199e+00  2.29605072e+00
  2.31552254e+00  2.35970163e+00  2.54191308e+00  2.54810516e+00
  2.66586457e+00  2.68449697e+00  2.69734682e+00  2.72262001e+00
  2.74445894e+00  2.77553972e+00  3.02932505e+00  3.39607276e+00]
nelec by numeric integration = 68.00002274797242
    CPU time for vxc      6.10 sec, wall time      0.22 sec
E1 = -1762.3420654827205  Ecoul = 712.2313665832783  Exc = -70.49057779148862
cycle= 3 E= -748.125880612688  delta_E= -0.0389  |g|= 0.0817  |ddm|= 0.481
    CPU time for cycle= 3      6.63 sec, wall time      0.24 sec
  HOMO = -0.25766292888149  LUMO = -0.0341463163258764
  mo_energy =
[-1.01494094e+02 -1.43291887e+01 -1.02303297e+01 -1.02295756e+01
 -1.02142664e+01 -1.02089139e+01 -1.02068990e+01 -1.02063742e+01
 -9.42485901e+00 -7.18801639e+00 -7.17839825e+00 -7.17838748e+00
 -9.43908793e-01 -8.20208262e-01 -8.15491732e-01 -7.75580538e-01
 -6.54331086e-01 -6.39510227e-01 -6.39221464e-01 -5.41933707e-01
 -4.89089136e-01 -4.80056102e-01 -4.44604677e-01 -4.24153506e-01
 -4.22361813e-01 -4.16158299e-01 -4.04617983e-01 -3.82906505e-01
 -3.77052063e-01 -2.96687512e-01 -2.75892254e-01 -2.73303378e-01
 -2.72838458e-01 -2.57662929e-01 -3.41463163e-02 -2.02127857e-02
  5.28373454e-02  8.41235151e-02  1.19559981e-01  1.26098407e-01
  1.37702730e-01  1.46699297e-01  1.55563582e-01  1.72102511e-01
  1.75253454e-01  2.04303469e-01  2.42442747e-01  2.85439405e-01
  3.13167546e-01  3.17047744e-01  4.28827687e-01  4.41173588e-01
  4.47052316e-01  4.81093709e-01  4.81382135e-01  4.84682226e-01
  5.02428189e-01  5.26068119e-01  5.46096316e-01  5.65062454e-01
  5.70833491e-01  5.74731074e-01  5.78541916e-01  5.90626648e-01
  5.95010073e-01  6.02107873e-01  6.13248557e-01  6.45552961e-01
  6.77842250e-01  6.81319610e-01  7.21116242e-01  8.10153955e-01
  8.15700266e-01  8.36809918e-01  8.45564721e-01  8.47240459e-01
  8.80336372e-01  8.82578632e-01  9.02327958e-01  9.19971286e-01
  9.21989247e-01  9.30508694e-01  9.31195051e-01  9.73612119e-01
  9.74679572e-01  9.81072329e-01  1.01845448e+00  1.06451650e+00
  1.07886571e+00  1.11639223e+00  1.16039922e+00  1.20398305e+00
  1.20880755e+00  1.23770733e+00  1.36732027e+00  1.38067364e+00
  1.45281998e+00  1.46712417e+00  1.47229043e+00  1.47313187e+00
  1.49559258e+00  1.51516640e+00  1.70747685e+00  1.70817959e+00
  1.71895687e+00  1.76645679e+00  1.81651818e+00  1.82235813e+00
  1.92241504e+00  1.95298197e+00  2.05125267e+00  2.12659475e+00
  2.12892997e+00  2.15500473e+00  2.17216020e+00  2.18229445e+00
  2.21218870e+00  2.24846443e+00  2.25853642e+00  2.29074982e+00
  2.31481828e+00  2.35856102e+00  2.54110040e+00  2.54389544e+00
  2.66302147e+00  2.68180877e+00  2.69533722e+00  2.71779471e+00
  2.74122866e+00  2.77527959e+00  3.02736204e+00  3.39276210e+00]
nelec by numeric integration = 68.00002304357959
    CPU time for vxc      5.97 sec, wall time      0.21 sec
E1 = -1762.5615084559379  Ecoul = 712.4644830000459  Exc = -70.50544143646921
cycle= 4 E= -748.127070814119  delta_E= -0.00119  |g|= 0.036  |ddm|= 0.0895
    CPU time for cycle= 4      6.51 sec, wall time      0.23 sec
  HOMO = -0.2608001046251  LUMO = -0.033389963756544
  mo_energy =
[-1.01489430e+02 -1.43388387e+01 -1.02264280e+01 -1.02262625e+01
 -1.02093412e+01 -1.02091214e+01 -1.02010759e+01 -1.02009271e+01
 -9.42146882e+00 -7.18444804e+00 -7.17491489e+00 -7.17490391e+00
 -9.44104752e-01 -8.19299223e-01 -8.12949507e-01 -7.73095110e-01
 -6.54878990e-01 -6.38286109e-01 -6.37284629e-01 -5.40305340e-01
 -4.87371588e-01 -4.78520933e-01 -4.42654904e-01 -4.25050082e-01
 -4.23196958e-01 -4.14652289e-01 -4.03629147e-01 -3.82358093e-01
 -3.75580550e-01 -2.95786391e-01 -2.73420730e-01 -2.72700751e-01
 -2.72173866e-01 -2.60800105e-01 -3.33899638e-02 -1.80577718e-02
  5.30069924e-02  8.53124730e-02  1.19288506e-01  1.26478602e-01
  1.39193769e-01  1.46855778e-01  1.56312963e-01  1.71161878e-01
  1.75704844e-01  2.04232984e-01  2.43183103e-01  2.87237852e-01
  3.13727329e-01  3.18571681e-01  4.29254851e-01  4.41735624e-01
  4.48295362e-01  4.81423084e-01  4.81701938e-01  4.85398658e-01
  5.04605090e-01  5.26937644e-01  5.45849462e-01  5.65413776e-01
  5.72079601e-01  5.76797247e-01  5.80225376e-01  5.92386259e-01
  5.96898599e-01  6.04362432e-01  6.13246950e-01  6.47370832e-01
  6.78567136e-01  6.83392687e-01  7.20495350e-01  8.12128305e-01
  8.18203336e-01  8.38300287e-01  8.45032284e-01  8.46547090e-01
  8.80778772e-01  8.82619988e-01  9.02584054e-01  9.21171119e-01
  9.23236780e-01  9.30901241e-01  9.32365897e-01  9.73663872e-01
  9.75699225e-01  9.81826939e-01  1.01795295e+00  1.06477110e+00
  1.07998722e+00  1.11733689e+00  1.16228697e+00  1.20397165e+00
  1.20898318e+00  1.23973882e+00  1.36973583e+00  1.38060998e+00
  1.45327287e+00  1.47015366e+00  1.47036482e+00  1.47515419e+00
  1.49759175e+00  1.51485318e+00  1.70674420e+00  1.70750112e+00
  1.71956959e+00  1.76751672e+00  1.81693757e+00  1.82485732e+00
  1.92441703e+00  1.95538794e+00  2.05402507e+00  2.12898225e+00
  2.13109838e+00  2.15702049e+00  2.17418910e+00  2.18359488e+00
  2.21177582e+00  2.24756037e+00  2.25770036e+00  2.29330253e+00
  2.31595976e+00  2.35936597e+00  2.54224492e+00  2.54638498e+00
  2.66535374e+00  2.68304714e+00  2.69680842e+00  2.72007209e+00
  2.74277243e+00  2.77651984e+00  3.02819982e+00  3.39451639e+00]
nelec by numeric integration = 68.0000229502649
    CPU time for vxc      5.95 sec, wall time      0.21 sec
E1 = -1762.49426735143  Ecoul = 712.3934120350589  Exc = -70.50188198477495
cycle= 5 E= -748.127341222904  delta_E= -0.00027  |g|= 0.0105  |ddm|= 0.0404
    CPU time for cycle= 5      6.53 sec, wall time      0.23 sec
  HOMO = -0.259114484131757  LUMO = -0.0328403641530207
  mo_energy =
[-1.01486781e+02 -1.43354134e+01 -1.02236158e+01 -1.02233471e+01
 -1.02108535e+01 -1.02069337e+01 -1.02024602e+01 -1.02021960e+01
 -9.41943429e+00 -7.18234125e+00 -7.17282443e+00 -7.17281337e+00
 -9.42486652e-01 -8.18416598e-01 -8.13207999e-01 -7.72440590e-01
 -6.53800584e-01 -6.37732176e-01 -6.36947711e-01 -5.40053453e-01
 -4.86877204e-01 -4.78525942e-01 -4.42165224e-01 -4.24115678e-01
 -4.22286457e-01 -4.14764963e-01 -4.02885712e-01 -3.81447005e-01
 -3.75471425e-01 -2.95535424e-01 -2.72967558e-01 -2.71902502e-01
 -2.71404136e-01 -2.59114484e-01 -3.28403642e-02 -1.76448971e-02
  5.39386047e-02  8.51681202e-02  1.19816874e-01  1.26832016e-01
  1.39540341e-01  1.47093478e-01  1.56311107e-01  1.71852168e-01
  1.75883568e-01  2.04823162e-01  2.43779703e-01  2.87130384e-01
  3.14453701e-01  3.18665944e-01  4.29929284e-01  4.42130299e-01
  4.48768097e-01  4.82002452e-01  4.82283359e-01  4.85970873e-01
  5.04825760e-01  5.27308873e-01  5.46513623e-01  5.66119485e-01
  5.72939650e-01  5.77140634e-01  5.80563035e-01  5.92608988e-01
  5.96400661e-01  6.04250379e-01  6.13872862e-01  6.47714257e-01
  6.79551923e-01  6.83036376e-01  7.21719828e-01  8.11913430e-01
  8.17398989e-01  8.38477610e-01  8.46423069e-01  8.47416034e-01
  8.81687173e-01  8.83635404e-01  9.03216208e-01  9.21648071e-01
  9.23513181e-01  9.31849013e-01  9.32833499e-01  9.74682913e-01
  9.76317573e-01  9.82427287e-01  1.01892894e+00  1.06543549e+00
  1.08035024e+00  1.11774918e+00  1.16199638e+00  1.20470231e+00
  1.20953649e+00  1.24014848e+00  1.36992920e+00  1.38105516e+00
  1.45383193e+00  1.47012911e+00  1.47148250e+00  1.47520572e+00
  1.49850988e+00  1.51598819e+00  1.70794826e+00  1.70869831e+00
  1.72026444e+00  1.76811382e+00  1.81762333e+00  1.82503448e+00
  1.92428806e+00  1.95579780e+00  2.05435875e+00  2.12939858e+00
  2.13142814e+00  2.15783140e+00  2.17417404e+00  2.18425268e+00
  2.21295437e+00  2.24866514e+00  2.25879588e+00  2.29379746e+00
  2.31629427e+00  2.36026448e+00  2.54284450e+00  2.54677281e+00
  2.66552646e+00  2.68370247e+00  2.69730835e+00  2.72062841e+00
  2.74353120e+00  2.77686499e+00  3.02908109e+00  3.39498664e+00]
nelec by numeric integration = 68.00002289815
    CPU time for vxc      5.98 sec, wall time      0.21 sec
E1 = -1762.4327821772717  Ecoul = 712.3277690407826  Exc = -70.49774856966336
cycle= 6 E= -748.12736562791  delta_E= -2.44e-05  |g|= 0.00512  |ddm|= 0.0163
    CPU time for cycle= 6      7.18 sec, wall time      0.26 sec
  HOMO = -0.259527446340994  LUMO = -0.0329234173871856
  mo_energy =
[-1.01486749e+02 -1.43363092e+01 -1.02247109e+01 -1.02244322e+01
 -1.02098583e+01 -1.02070743e+01 -1.02020554e+01 -1.02018109e+01
 -9.41945844e+00 -7.18235594e+00 -7.17284360e+00 -7.17283251e+00
 -9.43098445e-01 -8.18557791e-01 -8.13069019e-01 -7.72677265e-01
 -6.53875231e-01 -6.37844946e-01 -6.36995027e-01 -5.40082467e-01
 -4.87009967e-01 -4.78478645e-01 -4.42366308e-01 -4.24258533e-01
 -4.22419399e-01 -4.14641075e-01 -4.03131442e-01 -3.81541031e-01
 -3.75474314e-01 -2.95546110e-01 -2.73145697e-01 -2.72004501e-01
 -2.71509634e-01 -2.59527446e-01 -3.29234174e-02 -1.77794929e-02
  5.38254073e-02  8.52833811e-02  1.19746168e-01  1.26774647e-01
  1.39494336e-01  1.47082404e-01  1.56396135e-01  1.71722274e-01
  1.75889097e-01  2.04702874e-01  2.43609162e-01  2.87223386e-01
  3.14251139e-01  3.18697377e-01  4.29905352e-01  4.42072273e-01
  4.48635802e-01  4.81905582e-01  4.82185295e-01  4.85782110e-01
  5.04763649e-01  5.27249830e-01  5.46416527e-01  5.65987041e-01
  5.72641704e-01  5.77020507e-01  5.80478596e-01  5.92598771e-01
  5.96627579e-01  6.04331898e-01  6.13749609e-01  6.47605282e-01
  6.79306330e-01  6.83217538e-01  7.21451101e-01  8.11993887e-01
  8.17763080e-01  8.38457996e-01  8.46104116e-01  8.47182042e-01
  8.81561603e-01  8.83479693e-01  9.03186304e-01  9.21642061e-01
  9.23518414e-01  9.31724963e-01  9.32799451e-01  9.74552308e-01
  9.76278012e-01  9.82341524e-01  1.01868710e+00  1.06534540e+00
  1.08028055e+00  1.11764588e+00  1.16212600e+00  1.20457788e+00
  1.20943167e+00  1.24003448e+00  1.36985376e+00  1.38097679e+00
  1.45369849e+00  1.47016607e+00  1.47128301e+00  1.47523296e+00
  1.49814915e+00  1.51563578e+00  1.70779959e+00  1.70854702e+00
  1.72006006e+00  1.76793919e+00  1.81745869e+00  1.82499268e+00
  1.92435657e+00  1.95562962e+00  2.05423512e+00  2.12922987e+00
  2.13133625e+00  2.15755889e+00  2.17422253e+00  2.18409428e+00
  2.21280811e+00  2.24852575e+00  2.25865249e+00  2.29362486e+00
  2.31628189e+00  2.35997448e+00  2.54267317e+00  2.54663075e+00
  2.66549560e+00  2.68355721e+00  2.69720840e+00  2.72047284e+00
  2.74329349e+00  2.77683998e+00  3.02885684e+00  3.39490995e+00]
nelec by numeric integration = 68.00002291869947
    CPU time for vxc      6.57 sec, wall time      0.23 sec
E1 = -1762.4464649805739  Ecoul = 712.3419778137581  Exc = -70.49828186691106
cycle= 7 E= -748.127372955485  delta_E= -7.33e-06  |g|= 0.000564  |ddm|= 0.0054
    CPU time for cycle= 7      7.43 sec, wall time      0.27 sec
  HOMO = -0.259498415252631  LUMO = -0.0329156915410097
  mo_energy =
[-1.01487020e+02 -1.43362794e+01 -1.02246393e+01 -1.02243939e+01
 -1.02100247e+01 -1.02072880e+01 -1.02019336e+01 -1.02017061e+01
 -9.41966912e+00 -7.18257513e+00 -7.17305901e+00 -7.17304793e+00
 -9.43069022e-01 -8.18649396e-01 -8.13077429e-01 -7.72632564e-01
 -6.53942992e-01 -6.37825493e-01 -6.36976847e-01 -5.40075825e-01
 -4.86988346e-01 -4.78452848e-01 -4.42330745e-01 -4.24307803e-01
 -4.22470462e-01 -4.14659431e-01 -4.03110714e-01 -3.81628007e-01
 -3.75460548e-01 -2.95547027e-01 -2.73110945e-01 -2.72087691e-01
 -2.71585822e-01 -2.59498415e-01 -3.29156915e-02 -1.77464511e-02
  5.37562790e-02  8.52709442e-02  1.19740041e-01  1.26783095e-01
  1.39513518e-01  1.47083321e-01  1.56392250e-01  1.71699087e-01
  1.75892850e-01  2.04703150e-01  2.43618437e-01  2.87228960e-01
  3.14276771e-01  3.18712388e-01  4.29830177e-01  4.42080323e-01
  4.48646076e-01  4.81846223e-01  4.82125806e-01  4.85752750e-01
  5.04780225e-01  5.27256787e-01  5.46373974e-01  5.65965993e-01
  5.72661193e-01  5.77053969e-01  5.80485169e-01  5.92587557e-01
  5.96623719e-01  6.04335092e-01  6.13752188e-01  6.47635581e-01
  6.79326120e-01  6.83220786e-01  7.21451724e-01  8.12023296e-01
  8.17738730e-01  8.38477398e-01  8.46108250e-01  8.47204434e-01
  8.81492107e-01  8.83408497e-01  9.03152381e-01  9.21609257e-01
  9.23495854e-01  9.31643341e-01  9.32764562e-01  9.74479095e-01
  9.76224310e-01  9.82325318e-01  1.01870841e+00  1.06530709e+00
  1.08028881e+00  1.11765032e+00  1.16213160e+00  1.20455467e+00
  1.20942772e+00  1.24005632e+00  1.36987529e+00  1.38098315e+00
  1.45371432e+00  1.47017975e+00  1.47128285e+00  1.47524415e+00
  1.49819050e+00  1.51565905e+00  1.70771465e+00  1.70846498e+00
  1.72008467e+00  1.76795416e+00  1.81747786e+00  1.82501099e+00
  1.92436065e+00  1.95566634e+00  2.05425660e+00  2.12926385e+00
  2.13135468e+00  2.15759850e+00  2.17422752e+00  2.18410334e+00
  2.21272778e+00  2.24845648e+00  2.25858575e+00  2.29366603e+00
  2.31628567e+00  2.35999902e+00  2.54268650e+00  2.54666253e+00
  2.66551102e+00  2.68358130e+00  2.69723045e+00  2.72050851e+00
  2.74332605e+00  2.77684722e+00  3.02888299e+00  3.39493359e+00]
nelec by numeric integration = 68.00002292235057
    CPU time for vxc      5.92 sec, wall time      0.21 sec
E1 = -1762.448365927988  Ecoul = 712.3440485007513  Exc = -70.49845168637262
cycle= 8 E= -748.127373035367  delta_E= -7.99e-08  |g|= 0.000189  |ddm|= 0.000715
    CPU time for cycle= 8      6.43 sec, wall time      0.23 sec
  HOMO = -0.259498877415837  LUMO = -0.0329085056823867
  mo_energy =
[-1.01487030e+02 -1.43362826e+01 -1.02246326e+01 -1.02243660e+01
 -1.02099682e+01 -1.02072677e+01 -1.02019715e+01 -1.02017288e+01
 -9.41967157e+00 -7.18257976e+00 -7.17306165e+00 -7.17305057e+00
 -9.43065645e-01 -8.18641214e-01 -8.13070068e-01 -7.72633720e-01
 -6.53937558e-01 -6.37824649e-01 -6.36973193e-01 -5.40068820e-01
 -4.86985519e-01 -4.78459023e-01 -4.42332623e-01 -4.24299877e-01
 -4.22462844e-01 -4.14648208e-01 -4.03107387e-01 -3.81624572e-01
 -3.75460929e-01 -2.95539796e-01 -2.73112549e-01 -2.72084805e-01
 -2.71583013e-01 -2.59498877e-01 -3.29085057e-02 -1.77480960e-02
  5.37610859e-02  8.52734159e-02  1.19742444e-01  1.26783176e-01
  1.39515674e-01  1.47082806e-01  1.56396524e-01  1.71704327e-01
  1.75895027e-01  2.04704635e-01  2.43621674e-01  2.87232882e-01
  3.14277295e-01  3.18712760e-01  4.29825074e-01  4.42082499e-01
  4.48647317e-01  4.81848393e-01  4.82128011e-01  4.85756458e-01
  5.04783473e-01  5.27259425e-01  5.46379547e-01  5.65970585e-01
  5.72663996e-01  5.77052222e-01  5.80488827e-01  5.92597723e-01
  5.96627141e-01  6.04338980e-01  6.13754195e-01  6.47634206e-01
  6.79328224e-01  6.83222952e-01  7.21456776e-01  8.12016394e-01
  8.17749835e-01  8.38476689e-01  8.46111219e-01  8.47206211e-01
  8.81497306e-01  8.83413065e-01  9.03155905e-01  9.21613317e-01
  9.23500177e-01  9.31648036e-01  9.32767287e-01  9.74481203e-01
  9.76227178e-01  9.82329348e-01  1.01870856e+00  1.06531190e+00
  1.08028835e+00  1.11765393e+00  1.16213278e+00  1.20455602e+00
  1.20942850e+00  1.24005899e+00  1.36987805e+00  1.38098637e+00
  1.45371525e+00  1.47018554e+00  1.47128595e+00  1.47524628e+00
  1.49819137e+00  1.51566253e+00  1.70772617e+00  1.70847624e+00
  1.72008516e+00  1.76795806e+00  1.81748166e+00  1.82501431e+00
  1.92436453e+00  1.95566468e+00  2.05426127e+00  2.12926407e+00
  2.13135805e+00  2.15759904e+00  2.17423277e+00  2.18410991e+00
  2.21273880e+00  2.24846683e+00  2.25859574e+00  2.29366443e+00
  2.31629192e+00  2.36000209e+00  2.54269190e+00  2.54666379e+00
  2.66551469e+00  2.68358326e+00  2.69723318e+00  2.72050813e+00
  2.74332790e+00  2.77685377e+00  3.02888615e+00  3.39493624e+00]
nelec by numeric integration = 68.00002292150874
    CPU time for vxc      5.98 sec, wall time      0.21 sec
E1 = -1762.4480589515342  Ecoul = 712.3437269954813  Exc = -70.49843716530722
cycle= 9 E= -748.127373043118  delta_E= -7.75e-09  |g|= 5.11e-05  |ddm|= 0.000172
    CPU time for cycle= 9      6.52 sec, wall time      0.23 sec
  HOMO = -0.259504700992543  LUMO = -0.0329132691779365
  mo_energy =
[-1.01486999e+02 -1.43362903e+01 -1.02246322e+01 -1.02243798e+01
 -1.02099822e+01 -1.02072562e+01 -1.02019677e+01 -1.02017375e+01
 -9.41964527e+00 -7.18255312e+00 -7.17303483e+00 -7.17302375e+00
 -9.43070936e-01 -8.18631631e-01 -8.13074557e-01 -7.72637317e-01
 -6.53932967e-01 -6.37828897e-01 -6.36976773e-01 -5.40072462e-01
 -4.86990484e-01 -4.78461215e-01 -4.42335324e-01 -4.24298727e-01
 -4.22461298e-01 -4.14651776e-01 -4.03111398e-01 -3.81616316e-01
 -3.75464571e-01 -2.95544501e-01 -2.73115041e-01 -2.72073683e-01
 -2.71572906e-01 -2.59504701e-01 -3.29132692e-02 -1.77515776e-02
  5.37670078e-02  8.52727287e-02  1.19741818e-01  1.26781613e-01
  1.39511667e-01  1.47081803e-01  1.56394486e-01  1.71703790e-01
  1.75892421e-01  2.04704111e-01  2.43618663e-01  2.87229711e-01
  3.14273539e-01  3.18709749e-01  4.29835438e-01  4.42079807e-01
  4.48646379e-01  4.81856258e-01  4.82135891e-01  4.85759816e-01
  5.04780208e-01  5.27256195e-01  5.46381810e-01  5.65970928e-01
  5.72660682e-01  5.77049524e-01  5.80486318e-01  5.92594256e-01
  5.96624099e-01  6.04335996e-01  6.13751203e-01  6.47631431e-01
  6.79325596e-01  6.83219788e-01  7.21454146e-01  8.12014253e-01
  8.17746050e-01  8.38474294e-01  8.46107962e-01  8.47203731e-01
  8.81504705e-01  8.83421083e-01  9.03157255e-01  9.21615744e-01
  9.23500593e-01  9.31657865e-01  9.32770856e-01  9.74489189e-01
  9.76232194e-01  9.82329490e-01  1.01870515e+00  1.06531365e+00
  1.08028735e+00  1.11765101e+00  1.16213039e+00  1.20455778e+00
  1.20942776e+00  1.24005421e+00  1.36987385e+00  1.38098278e+00
  1.45371224e+00  1.47018110e+00  1.47128269e+00  1.47524137e+00
  1.49818769e+00  1.51565718e+00  1.70772991e+00  1.70847974e+00
  1.72008079e+00  1.76795433e+00  1.81747674e+00  1.82500994e+00
  1.92436059e+00  1.95566149e+00  2.05425686e+00  2.12926027e+00
  2.13135355e+00  2.15759516e+00  2.17422768e+00  2.18410507e+00
  2.21274262e+00  2.24846872e+00  2.25859757e+00  2.29366082e+00
  2.31628630e+00  2.35999733e+00  2.54268701e+00  2.54665985e+00
  2.66551020e+00  2.68357838e+00  2.69722819e+00  2.72050398e+00
  2.74332339e+00  2.77684814e+00  3.02888109e+00  3.39493145e+00]
nelec by numeric integration = 68.00002292142999
    CPU time for vxc      5.99 sec, wall time      0.21 sec
E1 = -1762.4479021201637  Ecoul = 712.3435568991003  Exc = -70.498423900982
cycle= 10 E= -748.127373043803  delta_E= -6.85e-10  |g|= 2.04e-05  |ddm|= 8.77e-05
    CPU time for cycle= 10      6.50 sec, wall time      0.23 sec
  HOMO = -0.259505366195631  LUMO = -0.0329122323605114
  mo_energy =
[-1.01487013e+02 -1.43362939e+01 -1.02246368e+01 -1.02243654e+01
 -1.02099776e+01 -1.02072570e+01 -1.02019759e+01 -1.02017284e+01
 -9.41965627e+00 -7.18256432e+00 -7.17304605e+00 -7.17303497e+00
 -9.43069965e-01 -8.18635803e-01 -8.13073647e-01 -7.72635728e-01
 -6.53934188e-01 -6.37827679e-01 -6.36975344e-01 -5.40070940e-01
 -4.86989066e-01 -4.78460374e-01 -4.42333867e-01 -4.24299015e-01
 -4.22461783e-01 -4.14651022e-01 -4.03110324e-01 -3.81619101e-01
 -3.75463386e-01 -2.95543684e-01 -2.73113865e-01 -2.72077889e-01
 -2.71576699e-01 -2.59505366e-01 -3.29122324e-02 -1.77502068e-02
  5.37650222e-02  8.52727628e-02  1.19741697e-01  1.26782460e-01
  1.39512847e-01  1.47081862e-01  1.56395054e-01  1.71703943e-01
  1.75894423e-01  2.04703714e-01  2.43619442e-01  2.87230730e-01
  3.14274297e-01  3.18710685e-01  4.29832781e-01  4.42080896e-01
  4.48646047e-01  4.81853283e-01  4.82132898e-01  4.85757755e-01
  5.04781445e-01  5.27256981e-01  5.46380827e-01  5.65970937e-01
  5.72662282e-01  5.77050820e-01  5.80486851e-01  5.92595684e-01
  5.96624713e-01  6.04337085e-01  6.13751557e-01  6.47632593e-01
  6.79326694e-01  6.83220560e-01  7.21454992e-01  8.12015177e-01
  8.17746890e-01  8.38475043e-01  8.46107903e-01  8.47205353e-01
  8.81502112e-01  8.83417768e-01  9.03156889e-01  9.21614917e-01
  9.23500403e-01  9.31654084e-01  9.32769161e-01  9.74486016e-01
  9.76230717e-01  9.82329549e-01  1.01870568e+00  1.06531317e+00
  1.08028751e+00  1.11765199e+00  1.16213099e+00  1.20455633e+00
  1.20942748e+00  1.24005569e+00  1.36987530e+00  1.38098308e+00
  1.45371312e+00  1.47018279e+00  1.47128268e+00  1.47524255e+00
  1.49818962e+00  1.51565789e+00  1.70772901e+00  1.70847894e+00
  1.72008153e+00  1.76795558e+00  1.81747751e+00  1.82501129e+00
  1.92436153e+00  1.95566295e+00  2.05425867e+00  2.12926169e+00
  2.13135491e+00  2.15759679e+00  2.17422883e+00  2.18410658e+00
  2.21274122e+00  2.24846857e+00  2.25859736e+00  2.29366245e+00
  2.31628742e+00  2.35999854e+00  2.54268802e+00  2.54666160e+00
  2.66551166e+00  2.68357974e+00  2.69722933e+00  2.72050559e+00
  2.74332484e+00  2.77684922e+00  3.02888239e+00  3.39493288e+00]
nelec by numeric integration = 68.00002292119703
    CPU time for vxc      5.99 sec, wall time      0.21 sec
E1 = -1762.4479977162664  Ecoul = 712.343659987039  Exc = -70.49843139260012
Extra cycle  E= -748.127373043585  delta_E= 2.18e-10  |g|= 3.43e-05  |ddm|= 5.53e-05
    CPU time for scf_cycle     89.65 sec, wall time      3.28 sec
    CPU time for SCF     89.66 sec, wall time      3.28 sec
converged SCF energy = -748.127373043585
Converting <class 'pyscf.dft.rks.RKS'> to RHF


******** <class 'pyscf.tdscf.rks.TDA'> for <class 'pyscf.dft.rks.RKS'> ********
nstates = 10 singlet
wfnsym = None
conv_tol = 1e-09
eigh lindep = 1e-12
eigh level_shift = 0
eigh max_space = 50
eigh max_cycle = 100
chkfile = /scratch/global/yangjunjie/tmp1igybpri
max_memory 127949 MB (current use 619 MB)


davidson 0 10  |r|= 0.253  e= [0.18155013 0.19180297 0.21534738 0.21983234 0.21995437 0.23566793
 0.23594598 0.28051007 0.36229234 0.3757787 ]  max|de|= 0.376  lindep=    1
davidson 1 20  |r|= 0.0478  e= [0.17856586 0.19092397 0.21108282 0.21969489 0.21970014 0.23561037
 0.23573534 0.24998448 0.30182373 0.30494737]  max|de|= -0.0708  lindep= 0.881
Old state -> New state
    4     ->     3 
    3     ->     4 
davidson 2 30  |r|= 0.0266  e= [0.17843398 0.19089521 0.2109194  0.21967146 0.21969425 0.23560914
 0.23571521 0.24961232 0.29967866 0.30047404]  max|de|= -0.00447  lindep= 0.815
Old state -> New state
    9     ->     8 
    8     ->     9 
davidson 3 40  |r|= 0.0484  e= [0.17843163 0.19089454 0.21091518 0.21967055 0.21969422 0.23560907
 0.23571476 0.24951306 0.29262727 0.29937013]  max|de|= -0.00785  lindep= 0.813
davidson 4 50  |r|= 0.0323  e= [0.17843158 0.19089452 0.21091505 0.2196705  0.21969422 0.23560906
 0.23571472 0.24950509 0.28740082 0.29927936]  max|de|= -0.00523  lindep= 0.76
Old state -> New state
    5     ->     9 
root 0 converged  |r|= 2.75e-06  e= 0.17843157474416932  max|de|= -9.85e-10
root 1 converged  |r|= 3.65e-06  e= 0.19089451688532558  max|de|= -7.75e-10
root 4 converged  |r|= 2.38e-06  e= 0.2196942208056094  max|de|= -1.79e-10
davidson 5 60  |r|= 0.0543  e= [0.17843157 0.19089452 0.21091505 0.2196705  0.21969422 0.23560906
 0.23571472 0.24950442 0.28361095 0.28505114]  max|de|= 0.0494  lindep= 0.801
root 2 converged  |r|= 1.13e-06  e= 0.21091505149432216  max|de|= -4.67e-11
root 3 converged  |r|= 1.9e-06  e= 0.21967049622441454  max|de|= -1.22e-10
root 5 converged  |r|= 2.46e-06  e= 0.23560905584844954  max|de|= -1.33e-10
root 6 converged  |r|= 2.59e-06  e= 0.23571471642754133  max|de|= -2e-10
davidson 6 67  |r|= 0.0263  e= [0.17843157 0.19089452 0.21091505 0.2196705  0.21969422 0.23560906
 0.23571472 0.24950438 0.27899223 0.27933633]  max|de|= -0.00571  lindep= 0.797
Old state -> New state
    9     ->     8 
    8     ->     9 
root 7 converged  |r|= 6.24e-06  e= 0.2495043819250334  max|de|= -9.76e-10
davidson 7 70  |r|= 0.0107  e= [0.17843157 0.19089452 0.21091505 0.2196705  0.21969422 0.23560906
 0.23571472 0.24950438 0.27836954 0.27856396]  max|de|= -0.000967  lindep= 0.795
davidson 8 10  |r|= 0.0107  e= [0.17843157 0.19089452 0.21091505 0.2196705  0.21969422 0.23560906
 0.23571472 0.24950438 0.27836954 0.27856396]  max|de|= -4.44e-16  lindep= 0.999
davidson 9 12  |r|= 0.00585  e= [0.17843157 0.19089452 0.21091505 0.2196705  0.21969422 0.23560906
 0.23571472 0.24950438 0.27825083 0.278511  ]  max|de|= -0.000119  lindep= 0.722
davidson 10 14  |r|= 0.00312  e= [0.17843157 0.19089452 0.21091505 0.2196705  0.21969422 0.23560906
 0.23571472 0.24950438 0.27821163 0.27849734]  max|de|= -3.92e-05  lindep= 0.774
davidson 11 16  |r|= 0.00182  e= [0.17843157 0.19089452 0.21091505 0.2196705  0.21969422 0.23560906
 0.23571472 0.24950438 0.27819715 0.2784961 ]  max|de|= -1.45e-05  lindep= 0.81
davidson 12 18  |r|= 0.00107  e= [0.17843157 0.19089452 0.21091505 0.2196705  0.21969422 0.23560906
 0.23571472 0.24950438 0.27819158 0.27849597]  max|de|= -5.57e-06  lindep= 0.842
davidson 13 20  |r|= 0.00055  e= [0.17843157 0.19089452 0.21091505 0.2196705  0.21969422 0.23560906
 0.23571472 0.24950438 0.27818984 0.27849594]  max|de|= -1.75e-06  lindep= 0.814
davidson 14 22  |r|= 0.000672  e= [0.17843157 0.19089452 0.21091505 0.2196705  0.21969422 0.23560906
 0.23571472 0.24950438 0.27818869 0.27849593]  max|de|= -1.15e-06  lindep= 0.847
davidson 15 24  |r|= 0.000357  e= [0.17843157 0.19089452 0.21091505 0.2196705  0.21969422 0.23560906
 0.23571472 0.24950438 0.27818796 0.27849593]  max|de|= -7.29e-07  lindep= 0.79
davidson 16 26  |r|= 0.000134  e= [0.17843157 0.19089452 0.21091505 0.2196705  0.21969422 0.23560906
 0.23571472 0.24950438 0.27818776 0.27849592]  max|de|= -2.02e-07  lindep= 0.822
davidson 17 28  |r|= 7.28e-05  e= [0.17843157 0.19089452 0.21091505 0.2196705  0.21969422 0.23560906
 0.23571472 0.24950438 0.27818772 0.27849592]  max|de|= -3.85e-08  lindep= 0.841
davidson 18 30  |r|= 3.05e-05  e= [0.17843157 0.19089452 0.21091505 0.2196705  0.21969422 0.23560906
 0.23571472 0.24950438 0.27818771 0.27849592]  max|de|= -6.15e-09  lindep= 0.812
davidson 19 32  |r|= 1.93e-05  e= [0.17843157 0.19089452 0.21091505 0.2196705  0.21969422 0.23560906
 0.23571472 0.24950438 0.27818771 0.27849591]  max|de|= -1.41e-09  lindep= 0.789
root 8 converged  |r|= 4.78e-06  e= 0.2781877119250118  max|de|= -1.61e-10
root 9 converged  |r|= 1.55e-05  e= 0.27849591297525994  max|de|= -8.67e-10
converged 20 34  |r|= 1.55e-05  e= [0.17843157 0.19089452 0.21091505 0.2196705  0.21969422 0.23560906
 0.23571472 0.24950438 0.27818771 0.27849591]  max|de|= -8.67e-10
    CPU time for TDA    297.77 sec, wall time     10.80 sec
Excited State energies (eV)
[4.85537046 5.19450439 5.73929088 5.97753867 5.97818425 6.41124897
 6.41412414 6.78936005 7.56987322 7.57825979]
Converting <class 'pyscf.dft.rks.RKS'> to RHF


******** <class 'pyscf.tdscf.rks.TDDFT'> for <class 'pyscf.dft.rks.RKS'> ********
nstates = 10 singlet
wfnsym = None
conv_tol = 1e-09
eigh lindep = 1e-12
eigh level_shift = 0
eigh max_space = 50
eigh max_cycle = 100
chkfile = /scratch/global/yangjunjie/tmp1igybpri
max_memory 127949 MB (current use 677 MB)


davidson 0 10  |r|= 0.399  e= [0.18155013 0.19180297 0.21534738 0.21983234 0.21995437 0.23566793
 0.23594598 0.28051007 0.36229234 0.3757787 ]  max|de|= 0.376  lindep=    1
Old state -> New state
    8     ->     0 
    9     ->     1 
    0     ->     2 
    1     ->     3 
    2     ->     4 
    7     ->     5 
    3     ->     6 
    4     ->     7 
    0     ->     8 
    5     ->     9 
davidson 1 20  |r|= 0.706  e= [0.06814025 0.07325933 0.1742437  0.19049373 0.20892041 0.20919563
 0.21964261 0.2196873  0.22058089 0.23560486]  max|de|= -0.303  lindep= 0.125
Old state -> New state
    3     ->     0 
    4     ->     1 
    5     ->     2 
    2     ->     3 
    2     ->     4 
    3     ->     5 
    4     ->     6 
    6     ->     8 
    1     ->     9 
davidson 2 30  |r|= 1.62  e= [0.00128102 0.03396244 0.07953207 0.13712275 0.17663136 0.19058522
 0.2082825  0.21952043 0.21969123 0.23548178]  max|de|= -0.189  lindep= 0.0951
Old state -> New state
    1     ->     0 
    4     ->     1 
    4     ->     2 
    5     ->     3 
    5     ->     4 
    6     ->     5 
    7     ->     6 
    8     ->     7 
    9     ->     8 
    3     ->     9 
davidson 3 40  |r|= 1.09  e= [0.05931316 0.16814578 0.17645088 0.19073883 0.20856895 0.20859187
 0.21955924 0.21969134 0.23560554 0.23560619]  max|de|= 0.0985  lindep= 0.0556
Old state -> New state
    2     ->     0 
    3     ->     1 
    5     ->     2 
    5     ->     3 
    6     ->     4 
    7     ->     5 
    8     ->     6 
    9     ->     7 
    4     ->     9 
davidson 4 50  |r|= 0.827  e= [0.17654709 0.19068266 0.20657456 0.20791228 0.2194954  0.21969247
 0.23559113 0.23560793 0.23904224 0.27642899]  max|de|= 0.0679  lindep= 0.319
Old state -> New state
    3     ->     0 
    0     ->     1 
    0     ->     2 
    0     ->     3 
    1     ->     4 
    2     ->     5 
    3     ->     6 
    4     ->     7 
    5     ->     8 
    6     ->     9 
davidson 5 60  |r|= 1.28  e= [0.04349414 0.07996645 0.17584037 0.17647227 0.1906805  0.20201357
 0.20841837 0.21951007 0.2196927  0.23558738]  max|de|= -0.164  lindep= 0.183
Old state -> New state
    1     ->     0 
    0     ->     1 
    3     ->     2 
    1     ->     5 
    5     ->     9 
davidson 6 70  |r|= 1.17  e= [0.09675226 0.13651077 0.17653182 0.17816676 0.19068371 0.20618289
 0.20845915 0.21957073 0.21969268 0.2287696 ]  max|de|= 0.126  lindep= 0.0701
Old state -> New state
    4     ->     3 
    6     ->     4 
    7     ->     5 
    8     ->     6 
    2     ->     7 
    0     ->     8 
davidson 7 80  |r|= 1.29  e= [0.04614945 0.11548492 0.1765353  0.19068018 0.2084564  0.21956505
 0.2196927  0.2257048  0.23538777 0.23559281]  max|de|= 0.139  lindep= 0.0388
root 3 converged  |r|= 2.27e-05  e= 0.190680184741538  max|de|= -3.33e-16
davidson 8 10  |r|= 1.29  e= [0.04614945 0.11548492 0.1765353  0.19068018 0.2084564  0.21956505
 0.2196927  0.2257048  0.23538777 0.23559281]  max|de|= 2.14e-15  lindep= 0.209
Old state -> New state
    0     ->     1 
    0     ->     2 
    1     ->     3 
    1     ->     4 
    2     ->     5 
    3     ->     6 
    4     ->     7 
    5     ->     8 
    6     ->     9 
davidson 9 19  |r|=  1.3  e= [0.04500473 0.06475631 0.10274641 0.11056756 0.17386132 0.1765352
 0.19068016 0.2084558  0.21956557 0.21969267]  max|de|= 0.0584  lindep= 0.0624
Old state -> New state
    0     ->     1 
    5     ->     2 
    5     ->     3 
    3     ->     4 
    6     ->     5 
    7     ->     6 
    8     ->     7 
    9     ->     8 
    3     ->     9 
davidson 10 29  |r|= 1.27  e= [0.04934764 0.07819641 0.17653778 0.18246376 0.18665155 0.19067993
 0.20845563 0.21956699 0.21969266 0.2355924 ]  max|de|= 0.125  lindep= 0.147
Old state -> New state
    6     ->     1 
    5     ->     3 
    6     ->     4 
    7     ->     5 
    8     ->     6 
    9     ->     7 
    1     ->     8 
    3     ->     9 
davidson 11 39  |r|= 1.26  e= [0.05012912 0.0626108  0.17653379 0.19068014 0.2084532  0.21956574
 0.21969267 0.23559213 0.24330482 0.28101872]  max|de|= 0.165  lindep= 0.0297
Old state -> New state
    2     ->     3 
    3     ->     4 
    4     ->     5 
    2     ->     6 
    5     ->     7 
    6     ->     8 
    7     ->     9 
davidson 12 49  |r|= 1.25  e= [0.0465459  0.06563463 0.16285373 0.17653546 0.19068012 0.20845479
 0.21659685 0.21956545 0.21969267 0.23559254]  max|de|= 0.0401  lindep= 0.0159
Old state -> New state
    0     ->     1 
    3     ->     2 
    4     ->     3 
    5     ->     4 
    7     ->     5 
    8     ->     6 
    9     ->     7 
    9     ->     8 
    1     ->     9 
davidson 13 59  |r|= 1.27  e= [0.00954838 0.03476509 0.17653522 0.19068011 0.20845579 0.21956526
 0.21969267 0.23559034 0.2395541  0.26013126]  max|de|= 0.194  lindep= 0.0573
Old state -> New state
    0     ->     1 
    0     ->     2 
    2     ->     3 
    3     ->     4 
    4     ->     5 
    4     ->     6 
    5     ->     7 
    6     ->     8 
    7     ->     9 
davidson 14 69  |r|= 1.34  e= [0.00698352 0.04009558 0.06990952 0.17653527 0.19068011 0.2084616
 0.21120559 0.21956457 0.21969267 0.23559269]  max|de|= 0.0604  lindep= 0.0675
Old state -> New state
    3     ->     1 
    4     ->     2 
    5     ->     3 
    7     ->     4 
    8     ->     5 
    0     ->     6 
    9     ->     7 
    6     ->     8 
    1     ->     9 
root 5 converged  |r|= 2.25e-05  e= 0.21969267000311446  max|de|= -8.93e-10
davidson 15 79  |r|=  1.1  e= [0.09977034 0.17653515 0.19068011 0.20845559 0.21956508 0.21969267
 0.22858777 0.23559286 0.26146342 0.27740874]  max|de|= 0.237  lindep= 0.18
root 1 converged  |r|= 8.62e-06  e= 0.17653514886526395  max|de|= 5.55e-17
root 2 converged  |r|= 2.57e-06  e= 0.190680114468612  max|de|= -3.05e-16
davidson 16 10  |r|=  1.1  e= [0.09977034 0.17653515 0.19068011 0.20845559 0.21956508 0.21969267
 0.22858777 0.23559286 0.26146342 0.27740874]  max|de|= 9.13e-15  lindep= 0.48
Old state -> New state
    1     ->     0 
    2     ->     1 
    3     ->     2 
    4     ->     3 
    5     ->     4 
    7     ->     5 
    8     ->     6 
    0     ->     7 
    6     ->     8 
davidson 17 17  |r|= 1.27  e= [0.17653517 0.1906801  0.20845541 0.21956479 0.21969267 0.23559262
 0.28173604 0.33149701 0.35777376]  max|de|= 0.232  lindep= 0.285
Old state -> New state
    7     ->     0 
    2     ->     1 
    0     ->     3 
    1     ->     4 
    2     ->     5 
    2     ->     6 
    3     ->     7 
    4     ->     8 
    5     ->     9 
root 4 converged  |r|= 1.14e-06  e= 0.19068010269247263  max|de|= -4.71e-10
root 8 converged  |r|= 6.45e-06  e= 0.21969267242448337  max|de|= 5.9e-10
davidson 18 26  |r|= 1.25  e= [0.02258821 0.10152507 0.13401024 0.17653512 0.1906801  0.20845105
 0.21096348 0.21956442 0.21969267 0.23559246]  max|de|= -0.309  lindep= 0.231
Old state -> New state
    0     ->     1 
    3     ->     2 
    4     ->     3 
    5     ->     4 
    7     ->     5 
    8     ->     6 
    9     ->     7 
    1     ->     8 
    1     ->     9 
davidson 19 34  |r|= 1.32  e= [0.01518626 0.03409171 0.17653513 0.1906801  0.20845497 0.21956497
 0.21969267 0.23559342 0.24213788 0.24891093]  max|de|= 0.147  lindep= 0.137
Old state -> New state
    8     ->     1 
    8     ->     7 
    7     ->     8 
    8     ->     9 
root 3 converged  |r|= 2.49e-07  e= 0.1906801037936322  max|de|= -4.63e-10
davidson 20 42  |r|= 1.32  e= [0.02602946 0.0769329  0.17653514 0.1906801  0.20845494 0.21956493
 0.21969267 0.23386826 0.23559301 0.28368861]  max|de|= -0.165  lindep= 0.104
Old state -> New state
    1     ->     0 
    2     ->     1 
    3     ->     2 
    4     ->     3 
    5     ->     4 
    6     ->     5 
    8     ->     6 
    7     ->     8 
davidson 21 50  |r|= 1.18  e= [0.12625329 0.17653516 0.1906801  0.20845508 0.21956493 0.21969267
 0.23559293 0.23700651 0.23932984 0.25413732]  max|de|= 0.0493  lindep= 0.154
Old state -> New state
    7     ->     0 
    0     ->     1 
    1     ->     2 
    2     ->     3 
    3     ->     4 
    4     ->     5 
    5     ->     6 
    6     ->     7 
    9     ->     8 
    7     ->     9 
davidson 22 58  |r|= 1.25  e= [0.00477125 0.1119087  0.17653514 0.1906801  0.20845504 0.21956494
 0.21969267 0.23559315 0.23781946 0.24016205]  max|de|= -0.232  lindep= 0.161
Old state -> New state
    2     ->     1 
    3     ->     2 
    4     ->     3 
    5     ->     4 
    6     ->     5 
    7     ->     6 
    8     ->     7 
    9     ->     8 
    0     ->     9 
root 4 converged  |r|= 8.8e-07  e= 0.21956493463388255  max|de|= -9.74e-10
davidson 23 64  |r|= 1.18  e= [0.07957792 0.17653515 0.1906801  0.20845505 0.21956493 0.21969267
 0.23559318 0.23746831 0.23979885 0.25491294]  max|de|= 0.25  lindep= 0.118
Old state -> New state
    0     ->     1 
    1     ->     2 
    2     ->     3 
    3     ->     4 
    4     ->     5 
    5     ->     6 
    6     ->     8 
    8     ->     9 
davidson 24 70  |r|= 1.07  e= [0.01208075 0.09835389 0.17653515 0.1906801  0.20845505 0.21956493
 0.21969267 0.23538505 0.23559313 0.24002723]  max|de|= -0.0675  lindep= 0.0767
Old state -> New state
    4     ->     2 
    2     ->     3 
    3     ->     4 
    4     ->     5 
    5     ->     6 
    6     ->     7 
    7     ->     9 
root 3 converged  |r|= 1.59e-07  e= 0.1765351472739433  max|de|= 9.48e-10
davidson 25 76  |r|= 1.18  e= [0.01302743 0.03812442 0.16141703 0.17653515 0.1906801  0.20845505
 0.21956494 0.21969267 0.23559314 0.23589815]  max|de|= -0.0602  lindep= 0.0148
Old state -> New state
    0     ->     1 
    3     ->     2 
    4     ->     3 
    5     ->     4 
davidson 26 81  |r|= 0.993  e= [0.00923252 0.02554464 0.17653515 0.1906801  0.20845504 0.21776292
 0.21956494 0.21969267 0.2355932  0.23571847]  max|de|= 0.0125  lindep= 0.0654
root 4 converged  |r|= 1.19e-06  e= 0.20845503643850907  max|de|= 1.62e-14
root 6 converged  |r|= 2.4e-06  e= 0.21956493631947144  max|de|= -7.77e-16
root 8 converged  |r|= 2.44e-05  e= 0.23559319526256084  max|de|= -1.39e-15
davidson 27 10  |r|= 0.993  e= [0.00923252 0.02554464 0.17653515 0.1906801  0.20845504 0.21776292
 0.21956494 0.21969267 0.2355932  0.23571847]  max|de|= -3.45e-14  lindep= 0.282
Old state -> New state
    6     ->     5 
    7     ->     6 
    8     ->     7 
    9     ->     8 
    5     ->     9 
davidson 28 14  |r|=  1.6  e= [0.04543491 0.09582887 0.17653515 0.1906801  0.20845504 0.21956494
 0.21969267 0.23559316 0.23576839 0.34600527]  max|de|= 0.128  lindep= 0.21
Old state -> New state
    1     ->     4 
    4     ->     5 
    5     ->     6 
    6     ->     7 
    7     ->     8 
    8     ->     9 
davidson 29 19  |r|= 1.27  e= [0.01746346 0.09513202 0.17653515 0.1906801  0.19673362 0.20845505
 0.21956494 0.21969267 0.23559343 0.23587754]  max|de|= 0.101  lindep= 0.235
Old state -> New state
    2     ->     1 
    5     ->     4 
    6     ->     5 
    7     ->     6 
    8     ->     7 
    4     ->     8 
    4     ->     9 
davidson 30 25  |r|= 1.54  e= [0.04783757 0.17068959 0.17653515 0.1906801  0.20845503 0.21956493
 0.21969267 0.23559315 0.3352322  0.41908242]  max|de|= 0.222  lindep= 0.178
Old state -> New state
    0     ->     1 
    7     ->     8 
    8     ->     9 
davidson 31 31  |r|=  1.4  e= [0.07804799 0.13039823 0.17653515 0.1906801  0.20845505 0.21956493
 0.21969267 0.23559316 0.23575235 0.24311684]  max|de|= -0.0921  lindep= 0.222
Old state -> New state
    1     ->     0 
    0     ->     1 
    2     ->     3 
    3     ->     4 
    4     ->     5 
    5     ->     6 
    6     ->     7 
    7     ->     8 
    8     ->     9 
davidson 32 36  |r|= 1.25  e= [0.01032558 0.07330271 0.17478448 0.17653514 0.1906801  0.20845505
 0.21956494 0.21969267 0.23559314 0.23573614]  max|de|= -0.12  lindep= 0.158
Old state -> New state
    0     ->     1 
    3     ->     2 
    4     ->     3 
    5     ->     4 
    6     ->     5 
    7     ->     6 
    8     ->     7 
    9     ->     8 
    1     ->     9 
davidson 33 41  |r|= 1.47  e= [0.0010238  0.07882262 0.17653515 0.1906801  0.20845505 0.21956494
 0.21969267 0.23559314 0.23562372 0.243499  ]  max|de|= 0.17  lindep= 0.0688
Old state -> New state
    9     ->     1 
root 2 converged  |r|= 6.01e-08  e= 0.1765351471215664  max|de|= -2.27e-10
root 4 converged  |r|= 1.63e-07  e= 0.2084550484338033  max|de|= 6.5e-10
root 5 converged  |r|= 6.45e-07  e= 0.219564935044921  max|de|= -2.5e-10
davidson 34 46  |r|= 1.04  e= [0.00598777 0.15210491 0.17653515 0.1906801  0.20845505 0.21956494
 0.21969267 0.23559314 0.2356471  0.24260111]  max|de|= -0.0914  lindep= 0.0674
Old state -> New state
    0     ->     1 
davidson 35 51  |r|= 1.09  e= [0.01193702 0.05553918 0.17653515 0.1906801  0.20845505 0.21956494
 0.21969267 0.23559316 0.23561484 0.24269373]  max|de|= 0.0496  lindep= 0.034
Old state -> New state
    2     ->     0 
    3     ->     1 
    4     ->     2 
    5     ->     3 
    6     ->     4 
    7     ->     5 
    8     ->     6 
    9     ->     7 
    0     ->     8 
    0     ->     9 
root 3 converged  |r|= 4.81e-07  e= 0.21956493608706196  max|de|= -5.47e-10
davidson 36 56  |r|= 0.41  e= [0.17653515 0.1906801  0.20845505 0.21956494 0.21969267 0.23559315
 0.23561796 0.24158206 0.29108687 0.3749633 ]  max|de|= 0.363  lindep= 0.406
Old state -> New state
    7     ->     0 
    0     ->     1 
    1     ->     2 
    2     ->     3 
    3     ->     4 
    4     ->     5 
    5     ->     6 
    6     ->     7 
    7     ->     8 
    8     ->     9 
root 3 converged  |r|= 5.65e-08  e= 0.20845504705550258  max|de|= 1e-10
root 6 converged  |r|= 6.29e-07  e= 0.23559314890521962  max|de|= -7.61e-10
davidson 37 61  |r|= 1.26  e= [0.06680369 0.17653515 0.1906801  0.20845505 0.21956494 0.21969267
 0.23559315 0.23561025 0.24075796 0.27682836]  max|de|= -0.175  lindep= 0.128
davidson 38 65  |r|= 1.18  e= [0.06230912 0.17653515 0.1906801  0.20845505 0.21956494 0.21969267
 0.23559315 0.23560871 0.24061647 0.26850497]  max|de|= -0.00832  lindep= 0.0401
Old state -> New state
    0     ->     1 
    1     ->     2 
    2     ->     3 
    3     ->     4 
    8     ->     5 
    4     ->     6 
    5     ->     7 
    6     ->     8 
    7     ->     9 
root 8 converged  |r|= 5.08e-07  e= 0.23559314693042424  max|de|= -6.29e-10
davidson 39 69  |r|= 1.11  e= [0.00355001 0.03753628 0.17653515 0.1906801  0.20845505 0.21611631
 0.21956494 0.21969267 0.23559315 0.23560829]  max|de|= -0.0588  lindep= 0.0859
Old state -> New state
    1     ->     3 
    3     ->     4 
    4     ->     5 
davidson 40 74  |r|= 1.13  e= [0.00560476 0.09918628 0.17653515 0.18569121 0.1906801  0.20845505
 0.21956494 0.21969267 0.23559315 0.23560835]  max|de|= 0.148  lindep= 0.0314
Old state -> New state
    2     ->     0 
    4     ->     1 
    5     ->     2 
    6     ->     3 
    7     ->     4 
    8     ->     5 
    9     ->     6 
    0     ->     7 
    1     ->     8 
    3     ->     9 
root 2 converged  |r|= 3.84e-08  e= 0.20845504716145868  max|de|= 3.22e-10
root 3 converged  |r|= 2.23e-07  e= 0.2195649365288705  max|de|= 5.09e-10
root 5 converged  |r|= 2.16e-07  e= 0.23559314818230112  max|de|= -7.62e-11
davidson 41 78  |r|= 0.0794  e= [0.17653515 0.1906801  0.20845505 0.21956494 0.21969267 0.23559315
 0.23560737 0.24025573 0.27789352 0.28311748]  max|de|= 0.235  lindep= 0.469
davidson 42 10  |r|= 0.0794  e= [0.17653515 0.1906801  0.20845505 0.21956494 0.21969267 0.23559315
 0.23560737 0.24025573 0.27789352 0.28311748]  max|de|= 2.11e-13  lindep= 0.994
Old state -> New state
    2     ->     0 
    0     ->     1 
    1     ->     2 
    2     ->     3 
    3     ->     4 
    4     ->     5 
    5     ->     6 
    6     ->     7 
    7     ->     8 
    8     ->     9 
davidson 43 14  |r|= 1.27  e= [0.08823394 0.17653515 0.1906801  0.20845505 0.21956494 0.21969267
 0.23559315 0.23560764 0.23936973 0.27236066]  max|de|= -0.12  lindep= 0.372
Old state -> New state
    8     ->     1 
    1     ->     2 
    2     ->     3 
    3     ->     4 
    4     ->     5 
    5     ->     6 
    8     ->     7 
    6     ->     8 
    7     ->     9 
davidson 44 18  |r|= 1.39  e= [0.03534876 0.14372701 0.17653515 0.1906801  0.20845505 0.21956492
 0.21969267 0.22378532 0.23559315 0.23560709]  max|de|= -0.0956  lindep= 0.328
Old state -> New state
    2     ->     1 
    8     ->     7 
    9     ->     8 
    7     ->     9 
davidson 45 23  |r|= 1.15  e= [0.05285111 0.14808581 0.17653515 0.1906801  0.20845505 0.21956494
 0.21969267 0.23559315 0.2356076  0.23988139]  max|de|= -0.0284  lindep= 0.185
Old state -> New state
    9     ->     1 
root 5 converged  |r|= 2.16e-07  e= 0.2195649357423646  max|de|= -6.94e-10
davidson 46 27  |r|= 1.07  e= [0.04973007 0.12564381 0.17653515 0.1906801  0.20845505 0.21956494
 0.21969267 0.23559315 0.23560744 0.23997772]  max|de|= -0.114  lindep= 0.0882
Old state -> New state
    0     ->     1 
    4     ->     5 
    5     ->     6 
    6     ->     7 
    7     ->     8 
    8     ->     9 
davidson 47 31  |r|= 1.12  e= [0.03010757 0.04802126 0.17653515 0.1906801  0.20845505 0.21291563
 0.21956494 0.21969267 0.23559315 0.2356075 ]  max|de|= -0.0196  lindep= 0.13
Old state -> New state
    0     ->     1 
    6     ->     5 
    7     ->     6 
    8     ->     7 
    9     ->     8 
    5     ->     9 
davidson 48 36  |r|= 1.28  e= [0.01592248 0.05264202 0.17653515 0.1906801  0.20845505 0.21956494
 0.21969267 0.23559315 0.23560751 0.2397051 ]  max|de|= 0.0268  lindep= 0.119
Old state -> New state
    0     ->     1 
    4     ->     5 
    5     ->     6 
    6     ->     7 
    7     ->     8 
    8     ->     9 
root 6 converged  |r|= 3.3e-07  e= 0.2195649364306145  max|de|= 6.39e-10
root 8 converged  |r|= 1.9e-07  e= 0.2355931486058674  max|de|= -4.15e-11
davidson 49 40  |r|= 1.45  e= [0.00447581 0.02286064 0.17653515 0.1906801  0.20831813 0.20845513
 0.21956494 0.21969267 0.23559315 0.23560747]  max|de|= -0.0114  lindep= 0.0533
Old state -> New state
    2     ->     1 
davidson 50 45  |r|= 1.07  e= [0.09397165 0.17418218 0.17653515 0.1906801  0.20166669 0.20845505
 0.21956493 0.21969267 0.23559315 0.23560752]  max|de|= 0.0895  lindep= 0.155
Old state -> New state
    0     ->     1 
    5     ->     4 
    6     ->     5 
    7     ->     6 
    8     ->     7 
    9     ->     8 
    4     ->     9 
davidson 51 49  |r|= 1.04  e= [0.03729381 0.0598951  0.17653515 0.1906801  0.20845505 0.21956494
 0.21969267 0.23559315 0.23560748 0.24001811]  max|de|= -0.0567  lindep= 0.117
Old state -> New state
    1     ->     0 
    1     ->     2 
    2     ->     3 
    3     ->     4 
    4     ->     5 
    5     ->     6 
    6     ->     7 
    7     ->     8 
    8     ->     9 
root 3 converged  |r|= 1.03e-07  e= 0.17653514775491494  max|de|= 2.93e-10
root 5 converged  |r|= 2.34e-08  e= 0.20845504641038642  max|de|= 1.62e-11
root 6 converged  |r|= 1.11e-07  e= 0.21956493683511458  max|de|= 1.71e-10
davidson 52 53  |r|= 1.39  e= [0.02236198 0.05569556 0.13798249 0.17653515 0.1906801  0.20845505
 0.21956494 0.21969267 0.23559315 0.2356075 ]  max|de|= 0.0781  lindep= 0.0294
Old state -> New state
    3     ->     1 
    4     ->     2 
    5     ->     3 
    5     ->     4 
    6     ->     5 
    7     ->     6 
    8     ->     7 
    9     ->     8 
    2     ->     9 
davidson 53 57  |r|= 1.49  e= [0.01509947 0.17653515 0.1906801  0.20845505 0.21497615 0.21956493
 0.21969267 0.23559315 0.2356075  0.23999816]  max|de|= 0.102  lindep= 0.0363
Old state -> New state
    1     ->     2 
    2     ->     3 
    3     ->     4 
davidson 54 61  |r|= 1.47  e= [0.01066384 0.10085376 0.17653515 0.1906801  0.20845505 0.21956494
 0.21969267 0.23559315 0.2356075  0.24000104]  max|de|= -0.0757  lindep= 0.00954
Old state -> New state
    2     ->     0 
    3     ->     1 
    4     ->     2 
    4     ->     3 
    5     ->     4 
    6     ->     5 
    7     ->     6 
    8     ->     7 
    9     ->     8 
    1     ->     9 
root 4 converged  |r|= 1.53e-07  e= 0.2195649365654696  max|de|= 7.16e-11
davidson 55 65  |r|= 0.725  e= [0.17653515 0.1906801  0.20845505 0.21274581 0.21956494 0.21969267
 0.23559315 0.2356075  0.24000889 0.27698784]  max|de|= 0.176  lindep= 0.234
Old state -> New state
    3     ->     0 
    0     ->     1 
    0     ->     2 
    1     ->     3 
    2     ->     4 
    4     ->     5 
    5     ->     6 
    6     ->     7 
    7     ->     8 
    8     ->     9 
davidson 56 69  |r|= 1.36  e= [0.09338847 0.15585724 0.17653515 0.1906801  0.20845505 0.21956494
 0.21969267 0.23559315 0.23560749 0.24001114]  max|de|= -0.119  lindep= 0.12
Old state -> New state
    2     ->     1 
    3     ->     2 
    4     ->     3 
    5     ->     4 
    6     ->     5 
    7     ->     6 
    8     ->     7 
    9     ->     8 
    1     ->     9 
davidson 57 73  |r|= 0.963  e= [0.03654138 0.17653515 0.1906801  0.20845505 0.21956494 0.21969267
 0.23559315 0.23560749 0.24001263 0.27437784]  max|de|= 0.119  lindep= 0.103
Old state -> New state
    8     ->     1 
    1     ->     2 
    2     ->     3 
    3     ->     4 
    4     ->     5 
    5     ->     6 
    6     ->     7 
    7     ->     8 
    8     ->     9 
root 8 converged  |r|= 5.37e-06  e= 0.23560748665847622  max|de|= 1.21e-10
davidson 58 77  |r|= 1.32  e= [0.0235859  0.14459148 0.17653515 0.1906801  0.20845505 0.21956494
 0.21969267 0.23559315 0.23560749 0.2400123 ]  max|de|= -0.0954  lindep= 0.0463
davidson 59 10  |r|= 1.32  e= [0.0235859  0.14459148 0.17653515 0.1906801  0.20845505 0.21956494
 0.21969267 0.23559315 0.23560749 0.2400123 ]  max|de|= -1.96e-13  lindep= 0.198
Old state -> New state
    9     ->     1 
davidson 60 13  |r|=  1.3  e= [0.02419047 0.04877166 0.17653515 0.1906801  0.20845505 0.21956494
 0.21969267 0.23559315 0.23560749 0.24001254]  max|de|= -0.191  lindep= 0.13
Old state -> New state
    9     ->     1 
davidson 61 16  |r|=  1.3  e= [0.02289951 0.06834688 0.17653515 0.1906801  0.20845505 0.21956494
 0.21969267 0.23559315 0.23560749 0.24001233]  max|de|= -0.172  lindep= 0.0928
Old state -> New state
    2     ->     1 
davidson 62 19  |r|= 0.891  e= [0.03274853 0.16845669 0.17653515 0.1906801  0.20845505 0.21956494
 0.21969267 0.23559315 0.23560749 0.24001031]  max|de|= 0.00985  lindep= 0.173
Old state -> New state
    2     ->     1 
    3     ->     2 
    4     ->     3 
    5     ->     4 
    6     ->     5 
    7     ->     6 
    8     ->     7 
    9     ->     8 
    1     ->     9 
davidson 63 22  |r|= 0.864  e= [0.03162241 0.17653515 0.1906801  0.20845505 0.21956494 0.21969267
 0.23559315 0.23560749 0.24001455 0.35131938]  max|de|= 0.183  lindep= 0.0301
Old state -> New state
    2     ->     3 
    3     ->     4 
    4     ->     5 
    5     ->     6 
    6     ->     7 
    7     ->     8 
    8     ->     9 
root 1 converged  |r|= 6.39e-08  e= 0.1765351475025955  max|de|= 3.44e-11
davidson 64 25  |r|= 0.863  e= [0.03183531 0.17653515 0.18733576 0.1906801  0.20845505 0.21956494
 0.21969267 0.23559315 0.23560749 0.24001237]  max|de|= -0.00334  lindep= 0.0225
Old state -> New state
    1     ->     2 
davidson 65 28  |r|= 1.01  e= [0.03173372 0.13493528 0.17653515 0.1906801  0.20845505 0.21956494
 0.21969267 0.23559315 0.23560749 0.24001507]  max|de|= -0.0416  lindep= 0.0159
Old state -> New state
    9     ->     1 
davidson 66 31  |r|= 1.05  e= [0.03172369 0.14244062 0.17653515 0.1906801  0.20845505 0.21956494
 0.21969267 0.23559315 0.23560749 0.24001234]  max|de|= -0.0976  lindep= 0.00661
Old state -> New state
    9     ->     1 
root 7 converged  |r|= 1.57e-07  e= 0.23559314785380167  max|de|= -2.94e-10
davidson 67 34  |r|= 1.35  e= [0.03171951 0.0936141  0.17653515 0.1906801  0.20845505 0.21956494
 0.21969267 0.23559315 0.23560749 0.24001258]  max|de|= -0.146  lindep= 0.00644
Old state -> New state
    2     ->     3 
    3     ->     4 
    4     ->     5 
    5     ->     6 
    6     ->     7 
    7     ->     8 
    8     ->     9 
davidson 68 37  |r|= 1.14  e= [0.0311361  0.07929412 0.13716281 0.17653515 0.1906801  0.20845505
 0.21956494 0.21969267 0.23559315 0.23560749]  max|de|= -0.0394  lindep= 0.0183
Old state -> New state
    2     ->     1 
    3     ->     2 
    4     ->     3 
    5     ->     4 
    6     ->     5 
    7     ->     6 
    8     ->     7 
    9     ->     8 
    2     ->     9 
davidson 69 40  |r|= 1.39  e= [0.03116986 0.0476201  0.17653515 0.1906801  0.20845505 0.21956494
 0.21969267 0.23559315 0.23560749 0.24001252]  max|de|= 0.103  lindep= 0.0303
root 2 converged  |r|= 4.6e-08  e= 0.17653514775165466  max|de|= 2.45e-10
davidson 70 43  |r|= 1.31  e= [0.02994369 0.09942235 0.17653515 0.1906801  0.20845505 0.21956494
 0.21969267 0.23559315 0.23560749 0.24001255]  max|de|= 0.0518  lindep= 0.0264
Old state -> New state
    2     ->     1 
davidson 71 46  |r|= 0.983  e= [0.02734761 0.15690267 0.17653515 0.1906801  0.20845505 0.21956494
 0.21969267 0.23559315 0.23560749 0.24001264]  max|de|= -0.0196  lindep= 0.0197
Old state -> New state
    2     ->     1 
davidson 72 49  |r|= 1.11  e= [0.02752053 0.13744375 0.17653515 0.1906801  0.20845505 0.21956494
 0.21969267 0.23559315 0.23560749 0.24001254]  max|de|= -0.0391  lindep= 0.0095
Old state -> New state
    2     ->     1 
    3     ->     2 
    4     ->     3 
    5     ->     4 
    6     ->     5 
    7     ->     6 
    8     ->     7 
    9     ->     8 
    1     ->     9 
davidson 73 52  |r|= 0.95  e= [0.09866301 0.17653515 0.1906801  0.20845505 0.21956494 0.21969267
 0.23559315 0.23560749 0.24001261 0.28738697]  max|de|= 0.15  lindep= 0.15
Old state -> New state
    9     ->     1 
    1     ->     2 
    2     ->     3 
    3     ->     4 
    4     ->     5 
    5     ->     6 
    6     ->     7 
    7     ->     8 
    8     ->     9 
davidson 74 55  |r|= 1.16  e= [0.09420407 0.11155075 0.17653515 0.1906801  0.20845505 0.21956494
 0.21969267 0.23559315 0.23560749 0.23728168]  max|de|= -0.176  lindep= 0.117
Old state -> New state
    2     ->     1 
    3     ->     2 
    4     ->     3 
    4     ->     7 
    7     ->     8 
    8     ->     9 
davidson 75 59  |r|= 1.21  e= [0.02478538 0.17653515 0.1906801  0.20845505 0.21302558 0.21956494
 0.21969267 0.23319657 0.23559315 0.23560748]  max|de|= -0.0694  lindep= 0.118
Old state -> New state
    0     ->     1 
    1     ->     2 
    1     ->     3 
    2     ->     4 
    3     ->     5 
    5     ->     6 
    6     ->     7 
root 8 converged  |r|= 1.86e-07  e= 0.23559314771620618  max|de|= -6.59e-10
davidson 76 63  |r|= 1.14  e= [0.0265048  0.09347621 0.17653515 0.18379335 0.1906801  0.20845505
 0.21956494 0.21969267 0.23559315 0.23560749]  max|de|= 0.0687  lindep= 0.0161
Old state -> New state
    2     ->     1 
    4     ->     3 
    5     ->     4 
    6     ->     5 
    7     ->     6 
    8     ->     7 
    9     ->     8 
    3     ->     9 
root 8 converged  |r|= 1.57e-06  e= 0.23560748769850232  max|de|= 2.68e-11
davidson 77 67  |r|= 1.19  e= [0.00494238 0.17653515 0.18290061 0.1906801  0.20845505 0.21956494
 0.21969267 0.23559315 0.23560749 0.24001189]  max|de|= 0.0562  lindep= 0.0502
Old state -> New state
    3     ->     2 
    4     ->     3 
davidson 78 70  |r|= 1.12  e= [0.04855722 0.17653515 0.1906801  0.1993395  0.20845504 0.21956494
 0.21969267 0.23559315 0.23560749 0.24001246]  max|de|= 0.0436  lindep= 0.139
Old state -> New state
    1     ->     2 
    2     ->     3 
davidson 79 74  |r|= 1.11  e= [0.00236155 0.17653513 0.18533994 0.1906801  0.20845505 0.21956494
 0.21969267 0.23559315 0.23560749 0.23960252]  max|de|= -0.0462  lindep= 0.0668
Old state -> New state
    2     ->     0 
    3     ->     2 
    4     ->     3 
    5     ->     4 
    6     ->     5 
    7     ->     6 
    8     ->     7 
    9     ->     8 
    2     ->     9 
davidson 80 78  |r|= 1.29  e= [0.04682083 0.17653515 0.1906801  0.20845505 0.21956494 0.21969267
 0.23559315 0.23560749 0.24001213 0.27591573]  max|de|= -0.139  lindep= 0.148
root 1 converged  |r|= 2.48e-07  e= 0.17653514950318006  max|de|= -2.88e-10
davidson 81 10  |r|= 1.29  e= [0.04682083 0.17653515 0.1906801  0.20845505 0.21956494 0.21969267
 0.23559315 0.23560749 0.24001212 0.27591573]  max|de|= -6.5e-09  lindep= 0.274
Old state -> New state
    0     ->     1 
    1     ->     2 
    2     ->     3 
    3     ->     4 
    4     ->     5 
    5     ->     6 
    6     ->     7 
    7     ->     8 
    8     ->     9 
root 4 converged  |r|= 3.02e-07  e= 0.2084550465521102  max|de|= -8.29e-10
davidson 82 13  |r|=  1.5  e= [0.03617207 0.09705424 0.17653515 0.1906801  0.20845505 0.21956494
 0.21969267 0.23559315 0.23560749 0.24001203]  max|de|= 0.0502  lindep= 0.195
Old state -> New state
    0     ->     1 
    4     ->     5 
    5     ->     6 
    6     ->     7 
    7     ->     8 
    8     ->     9 
davidson 83 16  |r|= 1.31  e= [0.01998601 0.07425876 0.17653515 0.1906801  0.20845501 0.21462154
 0.21956494 0.21969267 0.23559315 0.23560749]  max|de|= 0.0381  lindep= 0.137
Old state -> New state
    0     ->     1 
    6     ->     5 
    7     ->     6 
    8     ->     7 
    9     ->     8 
    1     ->     9 
root 2 converged  |r|= 1.57e-07  e= 0.17653514846578  max|de|= -3.01e-10
davidson 84 20  |r|= 1.31  e= [0.01383882 0.09739544 0.17653515 0.1906801  0.20845505 0.21956494
 0.21969267 0.23559315 0.23560749 0.24001206]  max|de|= 0.166  lindep= 0.103
Old state -> New state
    9     ->     1 
root 4 converged  |r|= 1.54e-07  e= 0.2084550468967424  max|de|= -9.39e-10
root 5 converged  |r|= 7.32e-08  e= 0.2195649365525168  max|de|= -6.43e-11
davidson 85 23  |r|= 1.33  e= [0.00744962 0.07858353 0.17653515 0.1906801  0.20845505 0.21956494
 0.21969267 0.23559315 0.23560749 0.24001201]  max|de|= -0.161  lindep= 0.102
davidson 86 26  |r|= 1.29  e= [0.00859874 0.09983084 0.17653515 0.1906801  0.20845505 0.21956494
 0.21969267 0.23559315 0.23560749 0.24001201]  max|de|= 0.0212  lindep= 0.0276
Old state -> New state
    2     ->     1 
    3     ->     2 
    4     ->     3 
    5     ->     4 
    6     ->     5 
    7     ->     6 
    8     ->     7 
    9     ->     8 
    4     ->     9 
davidson 87 29  |r|= 1.48  e= [0.04117976 0.17653515 0.1906801  0.20845505 0.21956494 0.21969267
 0.23559315 0.23560749 0.24001206 0.24976868]  max|de|= 0.0413  lindep= 0.128
Old state -> New state
    0     ->     1 
    1     ->     2 
    2     ->     3 
    3     ->     4 
    4     ->     5 
    5     ->     6 
    8     ->     7 
    6     ->     8 
    7     ->     9 
davidson 88 32  |r|= 1.33  e= [0.00449209 0.06988646 0.17653515 0.1906801  0.20845504 0.21956494
 0.21969267 0.23035891 0.23559315 0.23560749]  max|de|= -0.0367  lindep= 0.104
Old state -> New state
    2     ->     1 
    3     ->     2 
    4     ->     3 
    5     ->     4 
    6     ->     5 
    8     ->     6 
    9     ->     7 
    7     ->     8 
    1     ->     9 
root 4 converged  |r|= 6.61e-08  e= 0.21956493666533472  max|de|= -9.45e-10
root 6 converged  |r|= 1.44e-07  e= 0.23559314781888455  max|de|= 9.23e-10
davidson 89 35  |r|= 1.38  e= [0.06295918 0.17653515 0.1906801  0.20845505 0.21956494 0.21969267
 0.23559315 0.23560749 0.24001205 0.27888623]  max|de|= 0.209  lindep= 0.173
root 3 converged  |r|= 1.3e-07  e= 0.2084550465046499  max|de|= -3.52e-10
davidson 90 37  |r|= 0.975  e= [0.01490342 0.17653515 0.1906801  0.20845505 0.21956494 0.21969267
 0.23559315 0.23560749 0.24001207 0.25540838]  max|de|= -0.0481  lindep= 0.125
Old state -> New state
    0     ->     1 
    1     ->     2 
    2     ->     3 
    3     ->     4 
    4     ->     5 
    5     ->     6 
    6     ->     7 
    7     ->     8 
    8     ->     9 
davidson 91 40  |r|=  1.2  e= [0.00318723 0.05194295 0.17653515 0.1906801  0.20845505 0.21956494
 0.21969267 0.23559315 0.23560749 0.24001206]  max|de|= 0.037  lindep= 0.0895
Old state -> New state
    2     ->     0 
    3     ->     1 
    9     ->     2 
    4     ->     3 
    5     ->     4 
    6     ->     5 
    7     ->     6 
    8     ->     7 
    9     ->     8 
    1     ->     9 
davidson 92 42  |r|= 0.938  e= [0.17653515 0.1906801  0.19962675 0.20845505 0.21956494 0.21969267
 0.23559315 0.23560749 0.24001208 0.27799183]  max|de|= 0.226  lindep= 0.179
Old state -> New state
    2     ->     0 
    2     ->     1 
    0     ->     2 
    1     ->     3 
    3     ->     4 
    4     ->     5 
    5     ->     6 
    6     ->     7 
    7     ->     8 
    8     ->     9 
davidson 93 45  |r|= 1.28  e= [0.04337619 0.11177051 0.17653515 0.1906801  0.20845505 0.21956494
 0.21969267 0.23559315 0.23560749 0.24001208]  max|de|= -0.156  lindep= 0.145
Old state -> New state
    2     ->     1 
    3     ->     2 
    4     ->     3 
    5     ->     4 
    6     ->     5 
    2     ->     6 
root 3 converged  |r|= 5.66e-07  e= 0.20845504805429826  max|de|= 8.37e-10
davidson 94 47  |r|= 1.31  e= [0.03519586 0.17653515 0.1906801  0.20845505 0.21956494 0.21969267
 0.22184858 0.23559315 0.23560749 0.24001207]  max|de|= 0.0453  lindep= 0.0294
Old state -> New state
    1     ->     0 
    2     ->     1 
    3     ->     2 
    4     ->     3 
    5     ->     4 
    9     ->     5 
    7     ->     6 
    8     ->     7 
    9     ->     8 
    0     ->     9 
root 0 converged  |r|= 2.21e-07  e= 0.17653515031683256  max|de|= 7.33e-10
davidson 95 49  |r|= 0.534  e= [0.17653515 0.1906801  0.20845505 0.21956493 0.21969267 0.22387052
 0.23559315 0.23560749 0.24001209 0.27732739]  max|de|= 0.242  lindep= 0.146
Old state -> New state
    0     ->     1 
    1     ->     2 
    2     ->     3 
    3     ->     4 
    4     ->     5 
davidson 96 52  |r|= 0.666  e= [0.17653515 0.18929418 0.19068011 0.20845505 0.21956494 0.21969267
 0.23559315 0.23560749 0.24001207 0.27749059]  max|de|= 0.0128  lindep= 0.086
Old state -> New state
    0     ->     1 
root 4 converged  |r|= 2.62e-08  e= 0.21956493654327341  max|de|= -2.35e-10
davidson 97 54  |r|= 1.16  e= [0.10595822 0.17653515 0.1906801  0.20845505 0.21956494 0.21969267
 0.23559315 0.23560749 0.24001207 0.27719413]  max|de|= -0.0706  lindep= 0.154
Old state -> New state
    3     ->     1 
    1     ->     2 
    2     ->     3 
    3     ->     4 
    4     ->     5 
    5     ->     6 
    6     ->     7 
    7     ->     8 
    8     ->     9 
root 2 converged  |r|= 1.28e-07  e= 0.17653514780460713  max|de|= 3.22e-10
root 4 converged  |r|= 1.17e-07  e= 0.20845504545733415  max|de|= -4.98e-10
root 9 converged  |r|= 2.53e-07  e= 0.24001206609982914  max|de|= 1.06e-10
davidson 98 56  |r|= 1.22  e= [0.09105534 0.13189051 0.17653515 0.1906801  0.20845505 0.21956494
 0.21969267 0.23559315 0.23560749 0.24001207]  max|de|= -0.0766  lindep= 0.0449
Old state -> New state
    0     ->     1 
davidson 99 58  |r|= 1.14  e= [0.08814318 0.15948964 0.17653515 0.1906801  0.20845505 0.21956494
 0.21969267 0.23559315 0.23560749 0.24001206]  max|de|= 0.0684  lindep= 0.0444
    CPU time for TDDFT   1493.41 sec, wall time     53.61 sec
TD-SCF states [0, 1, 9] not converged.
Excited State energies (eV)
[2.39849822 4.33993417 4.80376606 5.18866993 5.67235072 5.97466624
 5.9781421  6.41081608 6.4112063  6.53106094]
