 
:: initializing oneAPI environment ...
   slurm_script: BASH_VERSION = 4.2.46(1)-release
   args: Using "$@" for setvars.sh arguments: --force
:: advisor -- latest
:: ccl -- latest
:: clck -- latest
:: compiler -- latest
:: dal -- latest
:: debugger -- latest
:: dev-utilities -- latest
:: dnnl -- latest
:: dpcpp-ct -- latest
:: dpl -- latest
:: inspector -- latest
:: intelpython -- latest
:: ipp -- latest
:: ippcp -- latest
:: ipp -- latest
:: itac -- latest
:: mkl -- latest
:: mpi -- latest
:: tbb -- latest
:: vpl -- latest
:: vtune -- latest
:: oneAPI environment initialized ::
 
SLURM_CPUS_PER_TASK = 28
SLURM_MEM_PER_NODE = 127949
#INFO: **** input file is /home/yangjunjie/work/py-ch3-cl/work/step_-25/main.py ****
import sys
import pyscf
from pyscf import tdscf

def main(xyz_file, basis="631g*", xc="b3lyp", output="ene.out"):
    xyz = None

    with open(xyz_file, "r") as xyz:
        xyz = xyz.readlines()[2:]
        xyz = "".join(xyz)

    mol = pyscf.gto.Mole()
    mol.atom = xyz
    mol.basis = basis
    mol.verbose = 5
    mol.build()

    if xc is not None and xc != "hf":
        mf = pyscf.scf.RKS(mol)
        mf.xc = xc
        mf.kernel()
    else:
        mf = pyscf.scf.RHF(mol)
        mf.kernel()

    ene_mf = mf.e_tot

    tda = pyscf.tdscf.TDA(mf)
    tda.nstates = 10
    tda.kernel()
    ene_tda = tda.e[:5]
    dip_tda = tda.transition_dipole()[:5]

    rpa = pyscf.tdscf.RPA(mf)
    rpa.nstates = 10
    rpa.kernel()
    ene_rpa = rpa.e[:5]
    dip_rpa = rpa.transition_dipole()[:5]

    with open(output, "w") as f:
        f.write(f"RKS energy: {ene_mf: 12.8f}\n")
        f.write("TDA results:\n")
        for i, (ene, dip) in enumerate(zip(ene_tda, dip_tda)):
            f.write(f" {i:2d} {ene: 12.8f} {dip[0]: 12.8f} {dip[1]: 12.8f} {dip[2]: 12.8f}\n")
        
        f.write("\nRPA results:\n")
        for i, (ene, dip) in enumerate(zip(ene_rpa, dip_rpa)):
            f.write(f" {i:2d} {ene: 12.8f} {dip[0]: 12.8f} {dip[1]: 12.8f} {dip[2]: 12.8f}\n")

if __name__ == "__main__":
    xyz = sys.argv[1]
    main(xyz, basis="631g*", xc="b3lyp", output="out.log")
#INFO: ******************** input file end ********************


System: uname_result(system='Linux', node='pauling038', release='3.10.0-327.36.3.el7.x86_64', version='#1 SMP Thu Oct 20 04:56:07 EDT 2016', machine='x86_64')  Threads 28
Python 3.9.7 (default, Oct 27 2021, 01:23:21) 
[GCC 9.3.0]
numpy 1.21.2  scipy 1.6.2
Date: Tue Sep 27 23:11:22 2022
PySCF version 2.0.1
PySCF path  /home/yangjunjie/packages/pyscf/pyscf-main
GIT ORIG_HEAD 14b880cdc4bf7bb64f3989a147c0b04622efc498
GIT HEAD (branch master) 9d5b5bd309d1cc55fbd1a0ec76e26b5b0c7f76af

[ENV] PYSCF_MAX_MEMORY 127949
[ENV] PYSCF_TMPDIR /scratch/global/yangjunjie/
[CONFIG] conf_file /home/yangjunjie/.pyscf_conf.py
[INPUT] verbose = 5
[INPUT] max_memory = 127949 
[INPUT] num. atoms = 16
[INPUT] num. electrons = 68
[INPUT] charge = 0
[INPUT] spin (= nelec alpha-beta = 2S) = 0
[INPUT] symmetry False subgroup None
[INPUT] Mole.unit = angstrom
[INPUT]  1 C      0.000000010000   1.181056660000   1.194539650000 AA    0.000000018897   2.231873624994   2.257352783434 Bohr
[INPUT]  2 C      0.000000000000   1.190178420000   2.590276110000 AA    0.000000000000   2.249111253168   4.894912434904 Bohr
[INPUT]  3 C     -0.000000010000  -0.014245420000   3.287083510000 AA   -0.000000018897  -0.026919942329   6.211687582474 Bohr
[INPUT]  4 C     -0.000000010000  -1.204426180000   2.564069400000 AA   -0.000000018897  -2.276035617456   4.845388930378 Bohr
[INPUT]  5 C      0.000000000000  -1.164244160000   1.172579420000 AA    0.000000000000  -2.200102604524   2.215853963101 Bohr
[INPUT]  6 N      0.000000010000   0.016129690000   0.489587030000 AA    0.000000018897   0.030480696574   0.925185400839 Bohr
[INPUT]  7 C      0.000000020000   0.003337690000  -2.292316340000 AA    0.000000037795   0.006307319989  -4.331850073465 Bohr
[INPUT]  8 H      0.000000020000   2.059282290000   0.621541350000 AA    0.000000037795   3.891479541267   1.174542926592 Bohr
[INPUT]  9 H      0.000000000000   2.143125150000   3.104433320000 AA    0.000000000000   4.049919584167   5.866528746774 Bohr
[INPUT] 10 H     -0.000000020000  -0.025517790000   4.365754200000 AA   -0.000000037795  -0.048221634404   8.250079765170 Bohr
[INPUT] 11 H     -0.000000020000  -2.166702320000   3.058915850000 AA   -0.000000037795  -4.094473978260   5.780513194591 Bohr
[INPUT] 12 H      0.000000000000  -2.031870210000   0.576843420000 AA    0.000000000000  -3.839678217562   1.090076080557 Bohr
[INPUT] 13 H     -0.000000030000   1.041089300000  -1.962681140000 AA   -0.000000056692   1.967373648215  -3.708929824449 Bohr
[INPUT] 14 H     -0.892203980000  -0.501571440000  -1.941102630000 AA   -1.686021169447  -0.947832653504  -3.668152350373 Bohr
[INPUT] 15 H      0.892203990000  -0.501571390000  -1.941102640000 AA    1.686021188344  -0.947832559017  -3.668152369270 Bohr
[INPUT] 16 Cl    -0.000000010000  -0.015787700000  -4.114674990000 AA   -0.000000018897  -0.029834429137  -7.775608822697 Bohr
[INPUT] ---------------- BASIS SET ---------------- 
[INPUT] l, kappa, [nprim/nctr], expnt,             c_1 c_2 ...
[INPUT] Cl
[INPUT] 0    0    [6    /1   ]  25180.1           0.001833
                                3780.35           0.014034
                                860.474           0.069097
                                242.145           0.237452
                                77.3349           0.483034
                                26.247            0.339856
[INPUT] 0    0    [6    /1   ]  491.765           -0.0022974
                                116.984           -0.030714
                                37.4153           -0.112528
                                13.7834           0.045016
                                5.45215           0.589353
                                2.22588           0.465206
[INPUT] 0    0    [3    /1   ]  3.18649           -0.25183
                                1.14427           0.061589
                                0.420377          1.06018
[INPUT] 0    0    [1    /1   ]  0.142657             1
[INPUT] 1    0    [6    /1   ]  491.765           0.0039894
                                116.984           0.030318
                                37.4153           0.12988
                                13.7834           0.327951
                                5.45215           0.453527
                                2.22588           0.252154
[INPUT] 1    0    [3    /1   ]  3.18649           -0.014299
                                1.14427           0.323572
                                0.420377          0.743507
[INPUT] 1    0    [1    /1   ]  0.142657             1
[INPUT] 2    0    [1    /1   ]  0.75                 1
[INPUT] C
[INPUT] 0    0    [6    /1   ]  3047.5249         0.0018347
                                457.36951         0.0140373
                                103.94869         0.0688426
                                29.210155         0.2321844
                                9.286663          0.4679413
                                3.163927          0.362312
[INPUT] 0    0    [3    /1   ]  7.8682724         -0.1193324
                                1.8812885         -0.1608542
                                0.5442493         1.1434564
[INPUT] 0    0    [1    /1   ]  0.1687144            1
[INPUT] 1    0    [3    /1   ]  7.8682724         0.0689991
                                1.8812885         0.316424
                                0.5442493         0.7443083
[INPUT] 1    0    [1    /1   ]  0.1687144            1
[INPUT] 2    0    [1    /1   ]  0.8                  1
[INPUT] N
[INPUT] 0    0    [6    /1   ]  4173.511          0.0018348
                                627.4579          0.013995
                                142.9021          0.068587
                                40.23433          0.232241
                                12.82021          0.46907
                                4.390437          0.360455
[INPUT] 0    0    [3    /1   ]  11.626358         -0.114961
                                2.71628           -0.169118
                                0.772218          1.145852
[INPUT] 0    0    [1    /1   ]  0.2120313            1
[INPUT] 1    0    [3    /1   ]  11.626358         0.06758
                                2.71628           0.323907
                                0.772218          0.740895
[INPUT] 1    0    [1    /1   ]  0.2120313            1
[INPUT] 2    0    [1    /1   ]  0.8                  1
[INPUT] H
[INPUT] 0    0    [3    /1   ]  18.731137         0.0334946
                                2.8253937         0.23472695
                                0.6401217         0.81375733
[INPUT] 0    0    [1    /1   ]  0.1612778            1

nuclear repulsion = 369.594552708762
number of shells = 66
number of NR pGTOs = 272
number of NR cGTOs = 132
basis = 631g*
ecp = {}
CPU time:         0.37


******** <class 'pyscf.dft.rks.RKS'> ********
method = RKS
initial guess = minao
damping factor = 0
level_shift factor = 0
DIIS = <class 'pyscf.scf.diis.CDIIS'>
diis_start_cycle = 1
diis_space = 8
SCF conv_tol = 1e-09
SCF conv_tol_grad = None
SCF max_cycles = 50
direct_scf = True
direct_scf_tol = 1e-13
chkfile to save SCF result = /scratch/global/yangjunjie/tmp4wy49ri0
max_memory 127949 MB (current use 81 MB)
XC library pyscf.dft.libxc version 5.2.0
    S. Lehtola, C. Steigemann, M. J. Oliveira, and M. A. Marques, SoftwareX 7, 1 (2018)
XC functionals = b3lyp
    P. A. M. Dirac, Math. Proc. Cambridge Philos. Soc. 26, 376 (1930)
    F. Bloch, Z. Phys. 57, 545 (1929)
    A. D. Becke, Phys. Rev. A 38, 3098 (1988)
    C. Lee, W. Yang, and R. G. Parr, Phys. Rev. B 37, 785 (1988)
    B. Miehlich, A. Savin, H. Stoll, and H. Preuss, Chem. Phys. Lett. 157, 200 (1989)
    S. H. Vosko, L. Wilk, and M. Nusair, Can. J. Phys. 58, 1200 (1980)
radial grids: 
    Treutler-Ahlrichs [JCP 102, 346 (1995); DOI:10.1063/1.469408] (M4) radial grids
    
becke partition: Becke, JCP 88, 2547 (1988); DOI:10.1063/1.454033
pruning grids: <function nwchem_prune at 0x7f354d0e8ee0>
grids dens level: 3
symmetrized grids: False
atomic radii adjust function: <function treutler_atomic_radii_adjust at 0x7f354d0e8e50>
small_rho_cutoff = 1e-07
Set gradient conv threshold to 3.16228e-05
atom C rad-grids = 75, ang-grids = [ 50  50  50  50  50  50  50  50  50  50  50  50  50  50  50  50  50  50
  50  50  50  50  50  86  86  86  86  86  86  86  86  86  86 266 266 266
 266 266 266 266 302 302 302 302 302 302 302 302 302 302 302 302 302 302
 302 302 302 302 302 302 266 266 266 266 266 266 266 266 266 266 266 266
 266 266 266]
atom N rad-grids = 75, ang-grids = [ 50  50  50  50  50  50  50  50  50  50  50  50  50  50  50  50  50  50
  50  50  50  50  50  86  86  86  86  86  86  86  86  86 266 266 266 266
 266 266 266 302 302 302 302 302 302 302 302 302 302 302 302 302 302 302
 302 302 302 302 266 266 266 266 266 266 266 266 266 266 266 266 266 266
 266 266 266]
atom H rad-grids = 50, ang-grids = [ 50  50  50  50  50  50  50  50  50  50  50  50  50  50  86  86  86  86
 266 266 266 266 302 302 302 302 302 302 302 302 302 302 302 302 302 266
 266 266 266 266 266 266 266 266 266 266 266 266 266 266]
atom Cl rad-grids = 80, ang-grids = [ 50  50  50  50  50  50  50  50  50  50  50  50  50  50  50  50  50  50
  50  50  50  50  50  50  86  86  86  86  86  86  86  86  86  86  86  86
  86 350 350 350 350 350 350 350 350 350 434 434 434 434 434 434 434 434
 434 434 434 434 434 434 434 434 434 434 350 350 350 350 350 350 350 350
 350 350 350 350 350 350 350 350]
tot grids = 196530
Drop grids 32766
    CPU time for setting up grids      4.31 sec, wall time      0.21 sec
nelec by numeric integration = 67.9760945682463
    CPU time for vxc      6.16 sec, wall time      0.22 sec
E1 = -1752.4196940990357  Ecoul = 704.2178000051852  Exc = -70.34490168948807
init E= -748.952243074577
cond(S) = 6085.198204440603
    CPU time for initialize scf     17.64 sec, wall time      0.77 sec
  HOMO = -0.293922835261732  LUMO = -0.102613265686194
  mo_energy =
[-1.01597163e+02 -1.43977082e+01 -1.02916793e+01 -1.02905313e+01
 -1.02900905e+01 -1.02884773e+01 -1.02854792e+01 -1.02851117e+01
 -9.53813260e+00 -7.29402612e+00 -7.29282622e+00 -7.29282576e+00
 -1.08227147e+00 -9.33906189e-01 -9.28123281e-01 -8.84891362e-01
 -7.56208771e-01 -7.07601583e-01 -7.07010978e-01 -5.78982890e-01
 -5.24494923e-01 -5.16069988e-01 -4.72936828e-01 -4.71805290e-01
 -4.66382790e-01 -4.56565943e-01 -4.34937782e-01 -4.27845530e-01
 -3.97864750e-01 -3.43609099e-01 -3.42685884e-01 -3.21900353e-01
 -3.00514230e-01 -2.93922835e-01 -1.02613266e-01 -7.96060252e-02
 -3.79903268e-02  5.38550994e-02  6.38087630e-02  7.70529211e-02
  9.36164429e-02  1.13338776e-01  1.22028351e-01  1.22713381e-01
  1.46143659e-01  1.62993031e-01  1.89022912e-01  2.34439800e-01
  2.51376576e-01  2.58640808e-01  3.59650970e-01  3.84289133e-01
  4.01548226e-01  4.15213641e-01  4.15296370e-01  4.24688451e-01
  4.66748318e-01  4.71615339e-01  4.87962816e-01  4.98360118e-01
  5.14399068e-01  5.16667450e-01  5.40965391e-01  5.42305280e-01
  5.52415912e-01  5.54155988e-01  5.55664456e-01  6.07956064e-01
  6.11312509e-01  6.40654440e-01  6.56221753e-01  7.70744308e-01
  7.75359028e-01  7.82897614e-01  7.88862799e-01  7.97952626e-01
  8.00968286e-01  8.13909855e-01  8.28724405e-01  8.46480383e-01
  8.50202946e-01  8.61235606e-01  8.83254227e-01  8.95147790e-01
  9.00165032e-01  9.27450741e-01  9.69706217e-01  9.98997083e-01
  1.03378377e+00  1.07022345e+00  1.11685478e+00  1.12960710e+00
  1.15777658e+00  1.17796419e+00  1.31216697e+00  1.32928249e+00
  1.38277479e+00  1.40249542e+00  1.40679270e+00  1.42160207e+00
  1.43856549e+00  1.45108542e+00  1.62314959e+00  1.62477685e+00
  1.66254498e+00  1.72886790e+00  1.74051818e+00  1.75485906e+00
  1.86863129e+00  1.90513077e+00  1.96928980e+00  2.04134387e+00
  2.05889996e+00  2.08163181e+00  2.09701778e+00  2.10427979e+00
  2.12615722e+00  2.16572980e+00  2.17266894e+00  2.21811835e+00
  2.23375797e+00  2.28314845e+00  2.47502748e+00  2.48294069e+00
  2.59129187e+00  2.59390050e+00  2.59960941e+00  2.63131982e+00
  2.66664448e+00  2.68044245e+00  2.93801152e+00  3.29167341e+00]
nelec by numeric integration = 68.00002342092309
    CPU time for vxc      5.85 sec, wall time      0.21 sec
E1 = -1760.3877546306867  Ecoul = 713.4934866108856  Exc = -70.7883134589382
cycle= 1 E= -748.088028769978  delta_E= 0.864  |g|= 0.367  |ddm|= 3.92
    CPU time for cycle= 1      6.36 sec, wall time      0.23 sec
  HOMO = -0.200428876074391  LUMO = 0.00684718897098139
  mo_energy =
[-1.01362222e+02 -1.42092225e+01 -1.01853285e+01 -1.01850022e+01
 -1.01575912e+01 -1.01304157e+01 -1.00971779e+01 -1.00960399e+01
 -9.31756808e+00 -7.07861234e+00 -7.06852169e+00 -7.06851627e+00
 -8.85111704e-01 -7.78905242e-01 -7.56485096e-01 -7.32653991e-01
 -6.22121310e-01 -6.02957141e-01 -5.99159793e-01 -5.14246338e-01
 -4.57588799e-01 -4.32827225e-01 -4.14043290e-01 -4.05962695e-01
 -4.04042316e-01 -3.78427088e-01 -3.58222290e-01 -3.42231555e-01
 -3.38919466e-01 -2.46176750e-01 -2.36510426e-01 -2.30154000e-01
 -2.29678267e-01 -2.00428876e-01  6.84718897e-03  1.49335203e-02
  8.00790841e-02  1.07333597e-01  1.32846050e-01  1.40993875e-01
  1.60063859e-01  1.67113883e-01  1.71957482e-01  1.83420698e-01
  1.86216133e-01  2.13145743e-01  2.66799212e-01  3.08630387e-01
  3.39172803e-01  3.44358006e-01  4.63345143e-01  4.65790294e-01
  4.77762861e-01  5.12066334e-01  5.12180062e-01  5.16652961e-01
  5.36567556e-01  5.58062401e-01  5.69581397e-01  5.85813454e-01
  5.93310385e-01  6.05406851e-01  6.10496202e-01  6.19271677e-01
  6.23275256e-01  6.31800864e-01  6.41425459e-01  6.76644091e-01
  7.02435104e-01  7.15013524e-01  7.39080574e-01  8.52087172e-01
  8.54532427e-01  8.74496124e-01  8.77233498e-01  8.77258028e-01
  9.11818470e-01  9.24752451e-01  9.31588637e-01  9.50810021e-01
  9.57079714e-01  9.73223501e-01  9.76808175e-01  1.00329541e+00
  1.01077712e+00  1.01555847e+00  1.04886452e+00  1.08621381e+00
  1.09805138e+00  1.13787392e+00  1.17552182e+00  1.23172252e+00
  1.23610054e+00  1.28700190e+00  1.40961053e+00  1.41540220e+00
  1.46760640e+00  1.48102278e+00  1.50881541e+00  1.51953556e+00
  1.53298375e+00  1.56259166e+00  1.73201402e+00  1.73344132e+00
  1.75866841e+00  1.82607024e+00  1.85920288e+00  1.86058421e+00
  1.97193402e+00  2.00587552e+00  2.08501430e+00  2.16114841e+00
  2.16392083e+00  2.18640113e+00  2.21162900e+00  2.21303421e+00
  2.23755975e+00  2.26760569e+00  2.27384526e+00  2.32578453e+00
  2.35307804e+00  2.39140585e+00  2.58424373e+00  2.58793252e+00
  2.70649750e+00  2.70931633e+00  2.72922484e+00  2.75504340e+00
  2.78195518e+00  2.81414789e+00  3.06534791e+00  3.42089995e+00]
nelec by numeric integration = 68.00002260019762
    CPU time for vxc      6.27 sec, wall time      0.22 sec
E1 = -1753.2394048795763  Ecoul = 705.7798679315903  Exc = -70.22597218110391
cycle= 2 E= -748.090956420328  delta_E= -0.00293  |g|= 0.379  |ddm|= 0.937
    CPU time for cycle= 2      6.78 sec, wall time      0.24 sec
  HOMO = -0.26255642826476  LUMO = -0.0355096050459759
  mo_energy =
[-1.01474573e+02 -1.43595226e+01 -1.02092458e+01 -1.02089051e+01
 -1.02052245e+01 -1.02001278e+01 -1.02001019e+01 -1.01968754e+01
 -9.40869726e+00 -7.17167107e+00 -7.16181738e+00 -7.16180932e+00
 -9.41483838e-01 -8.13525777e-01 -8.09569177e-01 -7.68645544e-01
 -6.48468369e-01 -6.37161225e-01 -6.34786982e-01 -5.38274998e-01
 -4.82535280e-01 -4.82121333e-01 -4.41001447e-01 -4.21000701e-01
 -4.18753006e-01 -4.14398163e-01 -3.99570040e-01 -3.76339260e-01
 -3.75637156e-01 -2.94352319e-01 -2.68911841e-01 -2.66570113e-01
 -2.66354922e-01 -2.62556428e-01 -3.55096050e-02 -1.68498216e-02
  5.62351581e-02  9.11618259e-02  1.23463224e-01  1.32021185e-01
  1.35061151e-01  1.49525422e-01  1.57546389e-01  1.73688008e-01
  1.79011766e-01  2.05481095e-01  2.39530693e-01  2.83514790e-01
  3.10323765e-01  3.14012890e-01  4.34772144e-01  4.43120318e-01
  4.47024733e-01  4.85805774e-01  4.86055597e-01  4.86136472e-01
  5.08214203e-01  5.24940756e-01  5.49986190e-01  5.64075806e-01
  5.68459351e-01  5.76527937e-01  5.80663760e-01  5.92482377e-01
  5.95402280e-01  6.03959353e-01  6.04669312e-01  6.49751294e-01
  6.75755080e-01  6.82140153e-01  7.13722005e-01  8.25577641e-01
  8.27176296e-01  8.40552802e-01  8.50125344e-01  8.61289386e-01
  8.87105936e-01  8.88495560e-01  9.09756645e-01  9.16863033e-01
  9.31123243e-01  9.36283454e-01  9.36946184e-01  9.76232105e-01
  9.77428118e-01  9.83780393e-01  1.01559837e+00  1.06359231e+00
  1.07611223e+00  1.11170078e+00  1.15451757e+00  1.19881475e+00
  1.20329014e+00  1.24184184e+00  1.37432182e+00  1.37854498e+00
  1.43805836e+00  1.46051648e+00  1.46872466e+00  1.47094593e+00
  1.49906795e+00  1.51317371e+00  1.71132829e+00  1.71234828e+00
  1.71806570e+00  1.79174360e+00  1.81293514e+00  1.81468857e+00
  1.92994509e+00  1.97268979e+00  2.04296166e+00  2.11430108e+00
  2.12387009e+00  2.14833958e+00  2.16345950e+00  2.16968978e+00
  2.21231010e+00  2.25146298e+00  2.25734261e+00  2.28772098e+00
  2.30377119e+00  2.34785417e+00  2.54010633e+00  2.54995390e+00
  2.66316884e+00  2.66572452e+00  2.67995428e+00  2.71273201e+00
  2.73848453e+00  2.76019380e+00  3.01786551e+00  3.37529673e+00]
nelec by numeric integration = 68.00002216911331
    CPU time for vxc      5.95 sec, wall time      0.23 sec
E1 = -1756.6069013539147  Ecoul = 709.3678693954778  Exc = -70.4819782602051
cycle= 3 E= -748.126457509881  delta_E= -0.0355  |g|= 0.0856  |ddm|= 0.463
    CPU time for cycle= 3      6.50 sec, wall time      0.25 sec
  HOMO = -0.257842405351709  LUMO = -0.0358503853720152
  mo_energy =
[-1.01495103e+02 -1.43296862e+01 -1.02291402e+01 -1.02288304e+01
 -1.02158973e+01 -1.02099329e+01 -1.02070415e+01 -1.02066664e+01
 -9.42583416e+00 -7.18903524e+00 -7.17935223e+00 -7.17934293e+00
 -9.37789466e-01 -8.20396438e-01 -8.11234647e-01 -7.73875213e-01
 -6.54513776e-01 -6.39839174e-01 -6.38845226e-01 -5.42066862e-01
 -4.85517941e-01 -4.84988778e-01 -4.45803612e-01 -4.24694714e-01
 -4.22600314e-01 -4.16925447e-01 -4.00292634e-01 -3.83444836e-01
 -3.78181646e-01 -2.93397083e-01 -2.74180058e-01 -2.74047309e-01
 -2.73551080e-01 -2.57842405e-01 -3.58503854e-02 -2.11847008e-02
  5.12172919e-02  8.97050879e-02  1.21303848e-01  1.29899502e-01
  1.32785822e-01  1.48259138e-01  1.56447197e-01  1.72072302e-01
  1.77624077e-01  2.03399465e-01  2.38528744e-01  2.81222446e-01
  3.09658621e-01  3.11244038e-01  4.28043726e-01  4.40908093e-01
  4.44166798e-01  4.80533149e-01  4.80745255e-01  4.83189668e-01
  5.04724804e-01  5.23655120e-01  5.46472975e-01  5.60219838e-01
  5.65679944e-01  5.73630011e-01  5.76754916e-01  5.90905454e-01
  5.91522639e-01  6.00579146e-01  6.03228453e-01  6.45899039e-01
  6.71166499e-01  6.80185155e-01  7.11241315e-01  8.22839365e-01
  8.24441454e-01  8.44206617e-01  8.46886197e-01  8.56356700e-01
  8.80803485e-01  8.83300549e-01  9.05001280e-01  9.13921012e-01
  9.24182396e-01  9.30152225e-01  9.31979687e-01  9.70078691e-01
  9.71749309e-01  9.79002410e-01  1.01621012e+00  1.06014359e+00
  1.07311732e+00  1.11060251e+00  1.15250342e+00  1.19639645e+00
  1.20224202e+00  1.23860182e+00  1.37085540e+00  1.37968391e+00
  1.43855605e+00  1.45923916e+00  1.46327238e+00  1.46896826e+00
  1.49429884e+00  1.51452880e+00  1.70576499e+00  1.70686431e+00
  1.71784049e+00  1.79112226e+00  1.81023579e+00  1.81339984e+00
  1.92890680e+00  1.96803735e+00  2.03807771e+00  2.11131300e+00
  2.11978646e+00  2.14372945e+00  2.16168575e+00  2.16776808e+00
  2.20683284e+00  2.24695952e+00  2.25290548e+00  2.28220878e+00
  2.30253648e+00  2.34674015e+00  2.53900507e+00  2.54532034e+00
  2.65956267e+00  2.66290820e+00  2.67756987e+00  2.70765716e+00
  2.73537469e+00  2.75935686e+00  3.01592573e+00  3.37164095e+00]
nelec by numeric integration = 68.00002256924404
    CPU time for vxc      5.93 sec, wall time      0.21 sec
E1 = -1756.8070780272005  Ecoul = 709.5804416151944  Exc = -70.4956766295345
cycle= 4 E= -748.127760332779  delta_E= -0.0013  |g|= 0.0372  |ddm|= 0.0918
    CPU time for cycle= 4      6.44 sec, wall time      0.23 sec
  HOMO = -0.261329937308434  LUMO = -0.0351205662796995
  mo_energy =
[-1.01490458e+02 -1.43396434e+01 -1.02263194e+01 -1.02262996e+01
 -1.02105938e+01 -1.02099992e+01 -1.02009234e+01 -1.02007299e+01
 -9.42245894e+00 -7.18547938e+00 -7.17588577e+00 -7.17587623e+00
 -9.38376315e-01 -8.19602740e-01 -8.08415941e-01 -7.71594375e-01
 -6.55189431e-01 -6.38047907e-01 -6.37636388e-01 -5.40482635e-01
 -4.83957103e-01 -4.83450345e-01 -4.43941552e-01 -4.25728756e-01
 -4.23568879e-01 -4.15197289e-01 -3.99474335e-01 -3.82994369e-01
 -3.76642313e-01 -2.92431500e-01 -2.73468975e-01 -2.73273639e-01
 -2.71486681e-01 -2.61329937e-01 -3.51205663e-02 -1.91514175e-02
  5.12559247e-02  9.09263047e-02  1.20813078e-01  1.30150833e-01
  1.34199261e-01  1.48508314e-01  1.57176494e-01  1.71021958e-01
  1.78116327e-01  2.03242537e-01  2.39149905e-01  2.83025321e-01
  3.10159609e-01  3.12769503e-01  4.28459835e-01  4.41566773e-01
  4.45217836e-01  4.80842594e-01  4.81039823e-01  4.83813062e-01
  5.06853062e-01  5.24524153e-01  5.46095955e-01  5.60431456e-01
  5.66653419e-01  5.74838798e-01  5.78724380e-01  5.93220915e-01
  5.93331585e-01  6.02804261e-01  6.03456642e-01  6.47620059e-01
  6.71660402e-01  6.82388596e-01  7.10373118e-01  8.25581408e-01
  8.26447128e-01  8.41809208e-01  8.48284729e-01  8.57158187e-01
  8.81234140e-01  8.83242177e-01  9.04782556e-01  9.15732671e-01
  9.24905869e-01  9.30448111e-01  9.33605583e-01  9.70863271e-01
  9.71731752e-01  9.79813913e-01  1.01547504e+00  1.06026567e+00
  1.07416870e+00  1.11152255e+00  1.15447890e+00  1.19560912e+00
  1.20282053e+00  1.24056149e+00  1.37324515e+00  1.37918112e+00
  1.43686940e+00  1.45967730e+00  1.46632802e+00  1.47115885e+00
  1.49590323e+00  1.51397580e+00  1.70490847e+00  1.70604883e+00
  1.71833580e+00  1.79146174e+00  1.81250677e+00  1.81453266e+00
  1.93101341e+00  1.97028859e+00  2.04084269e+00  2.11349802e+00
  2.12205991e+00  2.14546105e+00  2.16390701e+00  2.16890248e+00
  2.20625837e+00  2.24593306e+00  2.25192776e+00  2.28460904e+00
  2.30377137e+00  2.34721223e+00  2.54004737e+00  2.54773492e+00
  2.66197230e+00  2.66391666e+00  2.67899946e+00  2.70978084e+00
  2.73664000e+00  2.76069899e+00  3.01648831e+00  3.37328750e+00]
nelec by numeric integration = 68.0000223894254
    CPU time for vxc      5.94 sec, wall time      0.21 sec
E1 = -1756.7475486931494  Ecoul = 709.5173716584002  Exc = -70.49242930849408
cycle= 5 E= -748.128053634482  delta_E= -0.000293  |g|= 0.011  |ddm|= 0.0428
    CPU time for cycle= 5      6.46 sec, wall time      0.23 sec
  HOMO = -0.259669225349997  LUMO = -0.0345669603906375
  mo_energy =
[-1.01487993e+02 -1.43364198e+01 -1.02231451e+01 -1.02230794e+01
 -1.02116523e+01 -1.02081434e+01 -1.02023168e+01 -1.02020757e+01
 -9.42057034e+00 -7.18352218e+00 -7.17394513e+00 -7.17393552e+00
 -9.36685746e-01 -8.18699392e-01 -8.08731613e-01 -7.70863220e-01
 -6.54117882e-01 -6.37571421e-01 -6.37167147e-01 -5.40167040e-01
 -4.83993896e-01 -4.82865681e-01 -4.43402314e-01 -4.24790905e-01
 -4.22649818e-01 -4.15301588e-01 -3.98664796e-01 -3.82081135e-01
 -3.76533044e-01 -2.92198254e-01 -2.72719200e-01 -2.72536482e-01
 -2.70981007e-01 -2.59669225e-01 -3.45669604e-02 -1.86817753e-02
  5.22214961e-02  9.07893351e-02  1.21316337e-01  1.30574652e-01
  1.34591391e-01  1.48675225e-01  1.57238603e-01  1.71713958e-01
  1.78263945e-01  2.03835814e-01  2.39773614e-01  2.82962034e-01
  3.10904820e-01  3.12896816e-01  4.29088051e-01  4.41992396e-01
  4.45678538e-01  4.81389204e-01  4.81589650e-01  4.84383026e-01
  5.07134148e-01  5.24886971e-01  5.46775500e-01  5.61150317e-01
  5.67651277e-01  5.75366172e-01  5.79125921e-01  5.92631079e-01
  5.93572397e-01  6.02777784e-01  6.03939687e-01  6.48007770e-01
  6.72695427e-01  6.82038756e-01  7.11645979e-01  8.24815749e-01
  8.26290041e-01  8.43168561e-01  8.48526287e-01  8.57981258e-01
  8.82110776e-01  8.84231266e-01  9.05539105e-01  9.15669976e-01
  9.25737462e-01  9.31360872e-01  9.33773052e-01  9.71518979e-01
  9.72708167e-01  9.80474852e-01  1.01648884e+00  1.06096200e+00
  1.07455539e+00  1.11195729e+00  1.15420348e+00  1.19654999e+00
  1.20321772e+00  1.24102267e+00  1.37348630e+00  1.37973715e+00
  1.43784548e+00  1.46023945e+00  1.46635869e+00  1.47117525e+00
  1.49696425e+00  1.51513871e+00  1.70612339e+00  1.70725983e+00
  1.71901765e+00  1.79244289e+00  1.81278482e+00  1.81487340e+00
  1.93085507e+00  1.97076639e+00  2.04121606e+00  2.11384657e+00
  2.12253367e+00  2.14637529e+00  2.16385298e+00  2.16963572e+00
  2.20745757e+00  2.24705245e+00  2.25304206e+00  2.28516857e+00
  2.30407670e+00  2.34822496e+00  2.54068284e+00  2.54817303e+00
  2.66216915e+00  2.66466304e+00  2.67952525e+00  2.71041561e+00
  2.73746620e+00  2.76102359e+00  3.01745911e+00  3.37381873e+00]
nelec by numeric integration = 68.00002236021925
    CPU time for vxc      6.18 sec, wall time      0.22 sec
E1 = -1756.6856790921222  Ecoul = 709.4513834019509  Exc = -70.48833937780182
cycle= 6 E= -748.128082359211  delta_E= -2.87e-05  |g|= 0.00489  |ddm|= 0.0165
    CPU time for cycle= 6      6.94 sec, wall time      0.25 sec
  HOMO = -0.260046570176483  LUMO = -0.0346434664679029
  mo_energy =
[-1.01487991e+02 -1.43371982e+01 -1.02242431e+01 -1.02241764e+01
 -1.02107227e+01 -1.02082720e+01 -1.02019724e+01 -1.02017323e+01
 -9.42062073e+00 -7.18356314e+00 -7.17399091e+00 -7.17398127e+00
 -9.37284497e-01 -8.18866333e-01 -8.08593331e-01 -7.71110681e-01
 -6.54184403e-01 -6.37648435e-01 -6.37254009e-01 -5.40210381e-01
 -4.83944185e-01 -4.83021834e-01 -4.43614929e-01 -4.24917146e-01
 -4.22771433e-01 -4.15197162e-01 -3.98923729e-01 -3.82184697e-01
 -3.76539062e-01 -2.92208637e-01 -2.72830155e-01 -2.72651479e-01
 -2.71174181e-01 -2.60046570e-01 -3.46434665e-02 -1.88301760e-02
  5.21032145e-02  9.08880336e-02  1.21268342e-01  1.30502076e-01
  1.34532739e-01  1.48679589e-01  1.57301789e-01  1.71597085e-01
  1.78278860e-01  2.03728442e-01  2.39606080e-01  2.83038788e-01
  3.10700491e-01  3.12915202e-01  4.29059009e-01  4.41919875e-01
  4.45564317e-01  4.81286255e-01  4.81485774e-01  4.84189391e-01
  5.07053250e-01  5.24835375e-01  5.46678404e-01  5.61023705e-01
  5.67324140e-01  5.75237447e-01  5.78990464e-01  5.92855746e-01
  5.93559209e-01  6.02828498e-01  6.03860668e-01  6.47888285e-01
  6.72455173e-01  6.82199821e-01  7.11382116e-01  8.25133126e-01
  8.26339127e-01  8.42885308e-01  8.48501415e-01  8.57784157e-01
  8.81977548e-01  8.84071744e-01  9.05505474e-01  9.15767687e-01
  9.25616025e-01  9.31230149e-01  9.33783747e-01  9.71467009e-01
  9.72580398e-01  9.80365571e-01  1.01625213e+00  1.06086834e+00
  1.07447611e+00  1.11184819e+00  1.15431527e+00  1.19639549e+00
  1.20313191e+00  1.24089529e+00  1.37339270e+00  1.37965335e+00
  1.43768562e+00  1.46010882e+00  1.46637087e+00  1.47120120e+00
  1.49658145e+00  1.51479740e+00  1.70598550e+00  1.70712011e+00
  1.71883001e+00  1.79216223e+00  1.81271713e+00  1.81480810e+00
  1.93092019e+00  1.97058230e+00  2.04108476e+00  2.11374970e+00
  2.12235043e+00  2.14608569e+00  2.16390344e+00  2.16946210e+00
  2.20731724e+00  2.24692619e+00  2.25291130e+00  2.28497975e+00
  2.30407279e+00  2.34791602e+00  2.54050906e+00  2.54802016e+00
  2.66213177e+00  2.66449811e+00  2.67941727e+00  2.71023970e+00
  2.73721855e+00  2.76100188e+00  3.01722150e+00  3.37372644e+00]
nelec by numeric integration = 68.00002237860336
    CPU time for vxc      6.30 sec, wall time      0.23 sec
E1 = -1756.699591520876  Ecoul = 709.4658269858668  Exc = -70.48887721097573
cycle= 7 E= -748.128089037224  delta_E= -6.68e-06  |g|= 0.000585  |ddm|= 0.00512
    CPU time for cycle= 7      7.04 sec, wall time      0.25 sec
  HOMO = -0.260021964280939  LUMO = -0.0346425942509171
  mo_energy =
[-1.01488204e+02 -1.43371853e+01 -1.02241843e+01 -1.02241316e+01
 -1.02109176e+01 -1.02084811e+01 -1.02018501e+01 -1.02016215e+01
 -9.42078575e+00 -7.18373537e+00 -7.17415960e+00 -7.17414996e+00
 -9.37260855e-01 -8.18946288e-01 -8.08604505e-01 -7.71067591e-01
 -6.54248196e-01 -6.37633105e-01 -6.37238405e-01 -5.40208418e-01
 -4.83917898e-01 -4.83004868e-01 -4.43578883e-01 -4.24967435e-01
 -4.22822000e-01 -4.15219074e-01 -3.98904962e-01 -3.82261702e-01
 -3.76529516e-01 -2.92216778e-01 -2.72896883e-01 -2.72712822e-01
 -2.71139185e-01 -2.60021964e-01 -3.46425943e-02 -1.87984773e-02
  5.20377432e-02  9.08785099e-02  1.21257314e-01  1.30511084e-01
  1.34548557e-01  1.48681622e-01  1.57296567e-01  1.71573661e-01
  1.78282730e-01  2.03727666e-01  2.39611475e-01  2.83040574e-01
  3.10723984e-01  3.12928285e-01  4.28997302e-01  4.41928043e-01
  4.45574907e-01  4.81238620e-01  4.81437981e-01  4.84165086e-01
  5.07067262e-01  5.24839091e-01  5.46637179e-01  5.61000747e-01
  5.67342533e-01  5.75238536e-01  5.79023880e-01  5.92851102e-01
  5.93543499e-01  6.02829283e-01  6.03860134e-01  6.47917856e-01
  6.72474411e-01  6.82199777e-01  7.11382589e-01  8.25109496e-01
  8.26368796e-01  8.42884089e-01  8.48510965e-01  8.57801537e-01
  8.81923514e-01  8.84013179e-01  9.05462225e-01  9.15761437e-01
  9.25562160e-01  9.31163771e-01  9.33777109e-01  9.71415213e-01
  9.72519022e-01  9.80357648e-01  1.01627140e+00  1.06083040e+00
  1.07448633e+00  1.11184972e+00  1.15431867e+00  1.19636050e+00
  1.20314799e+00  1.24091260e+00  1.37341050e+00  1.37965382e+00
  1.43768007e+00  1.46012332e+00  1.46638004e+00  1.47120742e+00
  1.49662069e+00  1.51481500e+00  1.70590311e+00  1.70703968e+00
  1.71884997e+00  1.79218028e+00  1.81273072e+00  1.81481743e+00
  1.93091922e+00  1.97061776e+00  2.04110146e+00  2.11376379e+00
  2.12238179e+00  2.14612267e+00  2.16390126e+00  2.16946658e+00
  2.20723965e+00  2.24685733e+00  2.25284426e+00  2.28501954e+00
  2.30406887e+00  2.34793690e+00  2.54051620e+00  2.54804960e+00
  2.66214271e+00  2.66451890e+00  2.67943493e+00  2.71027339e+00
  2.73724682e+00  2.76100175e+00  3.01724345e+00  3.37374615e+00]
nelec by numeric integration = 68.00002237964952
    CPU time for vxc      5.99 sec, wall time      0.21 sec
E1 = -1756.7012326871945  Ecoul = 709.467619567305  Exc = -70.48902870969991
cycle= 8 E= -748.128089120828  delta_E= -8.36e-08  |g|= 0.0002  |ddm|= 0.000684
    CPU time for cycle= 8      6.66 sec, wall time      0.24 sec
  HOMO = -0.260020081789556  LUMO = -0.0346328130997834
  mo_energy =
[-1.01488227e+02 -1.43371851e+01 -1.02241700e+01 -1.02241077e+01
 -1.02108547e+01 -1.02084646e+01 -1.02018832e+01 -1.02016459e+01
 -9.42079868e+00 -7.18375082e+00 -7.17417292e+00 -7.17416329e+00
 -9.37254986e-01 -8.18942238e-01 -8.08594457e-01 -7.71067170e-01
 -6.54244703e-01 -6.37628800e-01 -6.37234554e-01 -5.40198921e-01
 -4.83923391e-01 -4.82999865e-01 -4.43579578e-01 -4.24960276e-01
 -4.22815174e-01 -4.15205372e-01 -3.98899680e-01 -3.82261785e-01
 -3.76527781e-01 -2.92206961e-01 -2.72898265e-01 -2.72713914e-01
 -2.71139468e-01 -2.60020082e-01 -3.46328131e-02 -1.87985510e-02
  5.20401899e-02  9.08817094e-02  1.21260880e-01  1.30511682e-01
  1.34552688e-01  1.48680949e-01  1.57301834e-01  1.71578593e-01
  1.78284733e-01  2.03730060e-01  2.39616533e-01  2.83046225e-01
  3.10726217e-01  3.12930228e-01  4.28988228e-01  4.41930975e-01
  4.45577278e-01  4.81237677e-01  4.81437086e-01  4.84167565e-01
  5.07072304e-01  5.24843628e-01  5.46641764e-01  5.61005318e-01
  5.67346985e-01  5.75244172e-01  5.79023282e-01  5.92855298e-01
  5.93555786e-01  6.02834590e-01  6.03863657e-01  6.47917764e-01
  6.72477600e-01  6.82203655e-01  7.11388707e-01  8.25120777e-01
  8.26362991e-01  8.42888458e-01  8.48514506e-01  8.57803616e-01
  8.81925686e-01  8.84014488e-01  9.05465095e-01  9.15766312e-01
  9.25563598e-01  9.31164710e-01  9.33780284e-01  9.71415077e-01
  9.72517930e-01  9.80362279e-01  1.01627288e+00  1.06083446e+00
  1.07448652e+00  1.11185512e+00  1.15432128e+00  1.19636160e+00
  1.20314904e+00  1.24091747e+00  1.37341555e+00  1.37965886e+00
  1.43768443e+00  1.46012566e+00  1.46638814e+00  1.47121171e+00
  1.49662361e+00  1.51482109e+00  1.70591301e+00  1.70704945e+00
  1.71885251e+00  1.79218556e+00  1.81273633e+00  1.81482421e+00
  1.93092521e+00  1.97061772e+00  2.04110855e+00  2.11376943e+00
  2.12238407e+00  2.14612521e+00  2.16390929e+00  2.16947527e+00
  2.20724903e+00  2.24686661e+00  2.25285335e+00  2.28501966e+00
  2.30407784e+00  2.34794217e+00  2.54052432e+00  2.54805256e+00
  2.66214862e+00  2.66452287e+00  2.67943989e+00  2.71027483e+00
  2.73725097e+00  2.76101098e+00  3.01724881e+00  3.37375102e+00]
nelec by numeric integration = 68.0000223790856
    CPU time for vxc      6.02 sec, wall time      0.22 sec
E1 = -1756.7009802943737  Ecoul = 709.4673568505139  Exc = -70.48901839465411
cycle= 9 E= -748.128089129752  delta_E= -8.92e-09  |g|= 4.8e-05  |ddm|= 0.000181
    CPU time for cycle= 9      6.55 sec, wall time      0.23 sec
  HOMO = -0.260026377424013  LUMO = -0.0346375492572807
  mo_energy =
[-1.01488197e+02 -1.43371939e+01 -1.02241727e+01 -1.02241177e+01
 -1.02108680e+01 -1.02084508e+01 -1.02018832e+01 -1.02016528e+01
 -9.42077284e+00 -7.18372464e+00 -7.17414655e+00 -7.17413693e+00
 -9.37260365e-01 -8.18931935e-01 -8.08599645e-01 -7.71070763e-01
 -6.54239607e-01 -6.37632651e-01 -6.37238496e-01 -5.40202461e-01
 -4.83925594e-01 -4.83004906e-01 -4.43582296e-01 -4.24958562e-01
 -4.22813257e-01 -4.15209124e-01 -3.98903829e-01 -3.82253055e-01
 -3.76531529e-01 -2.92211646e-01 -2.72887273e-01 -2.72703756e-01
 -2.71142148e-01 -2.60026377e-01 -3.46375493e-02 -1.88020497e-02
  5.20468006e-02  9.08807781e-02  1.21260195e-01  1.30510271e-01
  1.34548689e-01  1.48679950e-01  1.57299843e-01  1.71578307e-01
  1.78282701e-01  2.03729285e-01  2.39613494e-01  2.83043057e-01
  3.10722474e-01  3.12927098e-01  4.28998626e-01  4.41928464e-01
  4.45575739e-01  4.81245445e-01  4.81444851e-01  4.84170959e-01
  5.07069072e-01  5.24840123e-01  5.46644404e-01  5.61006176e-01
  5.67343826e-01  5.75241675e-01  5.79020608e-01  5.92852372e-01
  5.93552334e-01  6.02831813e-01  6.03860515e-01  6.47914956e-01
  6.72474958e-01  6.82200469e-01  7.11386124e-01  8.25116906e-01
  8.26361248e-01  8.42885335e-01  8.48511913e-01  8.57801763e-01
  8.81932826e-01  8.84022543e-01  9.05467748e-01  9.15763806e-01
  9.25571681e-01  9.31174344e-01  9.33779696e-01  9.71421324e-01
  9.72525916e-01  9.80361841e-01  1.01626938e+00  1.06083677e+00
  1.07448530e+00  1.11185220e+00  1.15431892e+00  1.19636487e+00
  1.20314611e+00  1.24091267e+00  1.37341139e+00  1.37965539e+00
  1.43768149e+00  1.46012270e+00  1.46638375e+00  1.47120680e+00
  1.49661999e+00  1.51481566e+00  1.70591740e+00  1.70705366e+00
  1.71884803e+00  1.79218163e+00  1.81273195e+00  1.81481942e+00
  1.93092124e+00  1.97061454e+00  2.04110420e+00  2.11376485e+00
  2.12238023e+00  2.14612127e+00  2.16390419e+00  2.16947051e+00
  2.20725350e+00  2.24686914e+00  2.25285580e+00  2.28501601e+00
  2.30407223e+00  2.34793740e+00  2.54051937e+00  2.54804872e+00
  2.66214414e+00  2.66451797e+00  2.67943484e+00  2.71027066e+00
  2.73724642e+00  2.76100535e+00  3.01724371e+00  3.37374622e+00]
nelec by numeric integration = 68.000022378946
    CPU time for vxc      5.87 sec, wall time      0.21 sec
E1 = -1756.7008237928871  Ecoul = 709.4671872685975  Exc = -70.48900531485221
cycle= 10 E= -748.12808913038  delta_E= -6.28e-10  |g|= 1.64e-05  |ddm|= 8.27e-05
    CPU time for cycle= 10      6.37 sec, wall time      0.23 sec
  HOMO = -0.260026712315687  LUMO = -0.0346362201832055
  mo_energy =
[-1.01488211e+02 -1.43371966e+01 -1.02241728e+01 -1.02241070e+01
 -1.02108619e+01 -1.02084528e+01 -1.02018884e+01 -1.02016477e+01
 -9.42078456e+00 -7.18373658e+00 -7.17415851e+00 -7.17414889e+00
 -9.37259133e-01 -8.18936666e-01 -8.08598200e-01 -7.71069121e-01
 -6.54241169e-01 -6.37631147e-01 -6.37237045e-01 -5.40200688e-01
 -4.83924903e-01 -4.83003250e-01 -4.43580832e-01 -4.24959113e-01
 -4.22813910e-01 -4.15207929e-01 -3.98902567e-01 -3.82256296e-01
 -3.76530209e-01 -2.92210543e-01 -2.72891779e-01 -2.72707917e-01
 -2.71140883e-01 -2.60026712e-01 -3.46362202e-02 -1.88006278e-02
  5.20443666e-02  9.08809590e-02  1.21260255e-01  1.30511003e-01
  1.34549990e-01  1.48679994e-01  1.57300612e-01  1.71578306e-01
  1.78284123e-01  2.03729321e-01  2.39614488e-01  2.83044213e-01
  3.10723289e-01  3.12928239e-01  4.28995562e-01  4.41929454e-01
  4.45575774e-01  4.81242251e-01  4.81441649e-01  4.84168766e-01
  5.07070466e-01  5.24841099e-01  5.46643248e-01  5.61005969e-01
  5.67345513e-01  5.75242279e-01  5.79021859e-01  5.92853063e-01
  5.93554066e-01  6.02832809e-01  6.03861220e-01  6.47916152e-01
  6.72476185e-01  6.82201361e-01  7.11387113e-01  8.25118508e-01
  8.26361330e-01  8.42885371e-01  8.48513081e-01  8.57803084e-01
  8.81930065e-01  8.84018918e-01  9.05466801e-01  9.15764604e-01
  9.25568585e-01  9.31170310e-01  9.33779827e-01  9.71418950e-01
  9.72522485e-01  9.80362399e-01  1.01627004e+00  1.06083594e+00
  1.07448565e+00  1.11185332e+00  1.15431963e+00  1.19636269e+00
  1.20314665e+00  1.24091431e+00  1.37341297e+00  1.37965570e+00
  1.43768154e+00  1.46012379e+00  1.46638567e+00  1.47120815e+00
  1.49662196e+00  1.51481665e+00  1.70591616e+00  1.70705249e+00
  1.71884890e+00  1.79218302e+00  1.81273320e+00  1.81482080e+00
  1.93092231e+00  1.97061607e+00  2.04110619e+00  2.11376645e+00
  2.12238176e+00  2.14612304e+00  2.16390561e+00  2.16947216e+00
  2.20725176e+00  2.24686867e+00  2.25285533e+00  2.28501767e+00
  2.30407364e+00  2.34793880e+00  2.54052074e+00  2.54805045e+00
  2.66214583e+00  2.66451946e+00  2.67943620e+00  2.71027238e+00
  2.73724799e+00  2.76100671e+00  3.01724520e+00  3.37374782e+00]
nelec by numeric integration = 68.00002237876895
    CPU time for vxc      7.14 sec, wall time      0.26 sec
E1 = -1756.7009223398773  Ecoul = 709.4672936353937  Exc = -70.48901313457148
Extra cycle  E= -748.128089130294  delta_E= 8.69e-11  |g|= 2.39e-05  |ddm|= 4.13e-05
    CPU time for scf_cycle     91.37 sec, wall time      3.43 sec
    CPU time for SCF     91.38 sec, wall time      3.43 sec
converged SCF energy = -748.128089130294
Converting <class 'pyscf.dft.rks.RKS'> to RHF


******** <class 'pyscf.tdscf.rks.TDA'> for <class 'pyscf.dft.rks.RKS'> ********
nstates = 10 singlet
wfnsym = None
conv_tol = 1e-09
eigh lindep = 1e-12
eigh level_shift = 0
eigh max_space = 50
eigh max_cycle = 100
chkfile = /scratch/global/yangjunjie/tmp4wy49ri0
max_memory 127949 MB (current use 605 MB)


davidson 0 10  |r|= 0.252  e= [0.18031382 0.19120806 0.21169719 0.21926589 0.21949792 0.23570223
 0.23602568 0.27775247 0.35821602 0.37187146]  max|de|= 0.372  lindep=    1
davidson 1 20  |r|= 0.0472  e= [0.17736332 0.1903495  0.2074762  0.21913622 0.21927867 0.23564928
 0.23587004 0.24664533 0.29786121 0.30152373]  max|de|= -0.0703  lindep= 0.878
davidson 2 30  |r|= 0.0246  e= [0.17723247 0.19032033 0.20730859 0.21913568 0.21925296 0.23564824
 0.23585367 0.24628332 0.29581367 0.29739399]  max|de|= -0.00413  lindep= 0.814
Old state -> New state
    9     ->     8 
    8     ->     9 
davidson 3 40  |r|= 0.0489  e= [0.17723002 0.19031963 0.20730442 0.21913565 0.21925217 0.23564818
 0.2358533  0.24618989 0.28989552 0.29557387]  max|de|= -0.0075  lindep= 0.805
davidson 4 50  |r|= 0.0266  e= [0.17722996 0.19031961 0.20730429 0.21913565 0.21925214 0.23564817
 0.23585328 0.24618254 0.28523562 0.2955134 ]  max|de|= -0.00466  lindep= 0.758
Old state -> New state
    5     ->     9 
root 1 converged  |r|= 3.9e-06  e= 0.19031960993533809  max|de|= -8.82e-10
root 3 converged  |r|= 2.26e-06  e= 0.21913565300801457  max|de|= -1.66e-10
davidson 5 60  |r|= 0.053  e= [0.17722996 0.19031961 0.20730429 0.21913565 0.21925214 0.23564817
 0.23585327 0.24618198 0.28280728 0.28309694]  max|de|= 0.0474  lindep= 0.803
root 0 converged  |r|= 3.45e-07  e= 0.17722996057093499  max|de|= -1.47e-11
root 2 converged  |r|= 9.61e-07  e= 0.20730429148155402  max|de|= -3.83e-11
root 4 converged  |r|= 1.49e-06  e= 0.21925213564864954  max|de|= -7.34e-11
root 5 converged  |r|= 2.42e-06  e= 0.235648169224343  max|de|= -1.29e-10
root 6 converged  |r|= 2.53e-06  e= 0.23585327130572617  max|de|= -2.01e-10
davidson 6 68  |r|= 0.0249  e= [0.17722996 0.19031961 0.20730429 0.21913565 0.21925214 0.23564817
 0.23585327 0.24618195 0.27753021 0.27774217]  max|de|= -0.00535  lindep= 0.798
root 7 converged  |r|= 3.06e-05  e= 0.24618195318159464  max|de|= -1.39e-16
davidson 7 10  |r|= 0.0249  e= [0.17722996 0.19031961 0.20730429 0.21913565 0.21925214 0.23564817
 0.23585327 0.24618195 0.27753021 0.27774217]  max|de|= 4.44e-16  lindep= 0.997
davidson 8 12  |r|= 0.0122  e= [0.17722996 0.19031961 0.20730429 0.21913565 0.21925214 0.23564817
 0.23585327 0.24618195 0.27700114 0.27702556]  max|de|= -0.000717  lindep= 0.731
Old state -> New state
    9     ->     8 
    8     ->     9 
davidson 9 14  |r|= 0.00529  e= [0.17722996 0.19031961 0.20730429 0.21913565 0.21925214 0.23564817
 0.23585327 0.24618195 0.27682948 0.27690614]  max|de|= -0.000196  lindep= 0.834
davidson 10 16  |r|= 0.00324  e= [0.17722996 0.19031961 0.20730429 0.21913565 0.21925214 0.23564817
 0.23585327 0.24618195 0.27678296 0.27689213]  max|de|= -4.65e-05  lindep= 0.813
davidson 11 18  |r|= 0.00154  e= [0.17722996 0.19031961 0.20730429 0.21913565 0.21925214 0.23564817
 0.23585327 0.24618195 0.27676568 0.27688983]  max|de|= -1.73e-05  lindep= 0.851
davidson 12 20  |r|= 0.00101  e= [0.17722996 0.19031961 0.20730429 0.21913565 0.21925214 0.23564817
 0.23585327 0.24618195 0.27676004 0.27688881]  max|de|= -5.64e-06  lindep= 0.859
davidson 13 22  |r|= 0.000838  e= [0.17722996 0.19031961 0.20730429 0.21913565 0.21925214 0.23564817
 0.23585327 0.24618195 0.27675748 0.27688819]  max|de|= -2.57e-06  lindep= 0.837
davidson 14 24  |r|= 0.000609  e= [0.17722996 0.19031961 0.20730429 0.21913565 0.21925214 0.23564817
 0.23585327 0.24618195 0.27675553 0.27688726]  max|de|= -1.94e-06  lindep= 0.859
davidson 15 26  |r|= 0.000448  e= [0.17722996 0.19031961 0.20730429 0.21913565 0.21925214 0.23564817
 0.23585327 0.24618195 0.27675471 0.27688661]  max|de|= -8.25e-07  lindep= 0.799
davidson 16 28  |r|= 0.000304  e= [0.17722996 0.19031961 0.20730429 0.21913565 0.21925214 0.23564817
 0.23585327 0.24618195 0.27675446 0.27688627]  max|de|= -3.41e-07  lindep= 0.748
davidson 17 30  |r|= 0.000272  e= [0.17722996 0.19031961 0.20730429 0.21913565 0.21925214 0.23564817
 0.23585327 0.24618195 0.27675442 0.27688602]  max|de|= -2.52e-07  lindep= 0.757
davidson 18 32  |r|= 0.000196  e= [0.17722996 0.19031961 0.20730429 0.21913565 0.21925214 0.23564817
 0.23585327 0.24618195 0.27675441 0.2768859 ]  max|de|= -1.23e-07  lindep= 0.773
davidson 19 34  |r|= 0.000109  e= [0.17722996 0.19031961 0.20730429 0.21913565 0.21925214 0.23564817
 0.23585327 0.24618195 0.2767544  0.27688582]  max|de|= -7.91e-08  lindep= 0.743
root 8 converged  |r|= 6.29e-06  e= 0.27675440329061984  max|de|= -3.46e-10
davidson 20 36  |r|= 4.34e-05  e= [0.17722996 0.19031961 0.20730429 0.21913565 0.21925214 0.23564817
 0.23585327 0.24618195 0.2767544  0.2768858 ]  max|de|= -1.64e-08  lindep= 0.773
davidson 21 37  |r|= 3.02e-05  e= [0.17722996 0.19031961 0.20730429 0.21913565 0.21925214 0.23564817
 0.23585327 0.24618195 0.2767544  0.2768858 ]  max|de|= -3.49e-09  lindep= 0.803
davidson 22 38  |r|= 3.02e-05  e= [0.17722996 0.19031961 0.20730429 0.21913565 0.21925214 0.23564817
 0.23585327 0.24618195 0.2767544  0.2768858 ]  max|de|= -1.35e-09  lindep= 0.852
root 9 converged  |r|= 6.53e-06  e= 0.2768857948765766  max|de|= -2.61e-10
converged 23 39  |r|= 3.02e-05  e= [0.17722996 0.19031961 0.20730429 0.21913565 0.21925214 0.23564817
 0.23585327 0.24618195 0.2767544  0.27688579]  max|de|= -2.61e-10
    CPU time for TDA    308.29 sec, wall time     11.20 sec
Excited State energies (eV)
[4.82267287 5.17886037 5.6410371  5.96298484 5.9661545  6.4123133
 6.41789441 6.69895216 7.5308709  7.53444625]
Converting <class 'pyscf.dft.rks.RKS'> to RHF


******** <class 'pyscf.tdscf.rks.TDDFT'> for <class 'pyscf.dft.rks.RKS'> ********
nstates = 10 singlet
wfnsym = None
conv_tol = 1e-09
eigh lindep = 1e-12
eigh level_shift = 0
eigh max_space = 50
eigh max_cycle = 100
chkfile = /scratch/global/yangjunjie/tmp4wy49ri0
max_memory 127949 MB (current use 637 MB)


davidson 0 10  |r|= 0.397  e= [0.18031382 0.19120806 0.21169719 0.21926589 0.21949792 0.23570223
 0.23602568 0.27775247 0.35821602 0.37187146]  max|de|= 0.372  lindep=    1
Old state -> New state
    8     ->     0 
    9     ->     1 
    0     ->     2 
    1     ->     3 
    2     ->     4 
    7     ->     5 
    0     ->     6 
    3     ->     7 
    4     ->     8 
    5     ->     9 
davidson 1 20  |r|= 0.707  e= [0.06538041 0.06890241 0.17286321 0.18990691 0.20535174 0.20573316
 0.21613506 0.21914385 0.21924751 0.23564488]  max|de|= -0.303  lindep= 0.125
Old state -> New state
    4     ->     0 
    5     ->     1 
    2     ->     3 
    3     ->     4 
    4     ->     5 
    8     ->     6 
    1     ->     8 
davidson 2 30  |r|= 1.64  e= [0.03389147 0.07244551 0.13515863 0.17543159 0.19000624 0.20479389
 0.21911885 0.21913316 0.23460558 0.23564567]  max|de|= -0.171  lindep= 0.143
Old state -> New state
    0     ->     1 
    3     ->     2 
    4     ->     3 
    5     ->     4 
    7     ->     5 
    2     ->     7 
    9     ->     8 
    8     ->     9 
davidson 3 40  |r|= 1.57  e= [0.0526744  0.08831213 0.17533956 0.19011724 0.20494436 0.21913612
 0.219142   0.23493349 0.23564319 0.23569032]  max|de|= 0.0998  lindep= 0.0426
Old state -> New state
    2     ->     1 
    3     ->     2 
    4     ->     3 
    7     ->     4 
    8     ->     7 
    9     ->     8 
davidson 4 50  |r|= 1.38  e= [0.08128152 0.1753366  0.19010277 0.20492    0.20856192 0.21913583
 0.21914503 0.23564698 0.23567648 0.23619086]  max|de|= 0.0286  lindep= 0.237
Old state -> New state
    3     ->     0 
    0     ->     2 
    1     ->     3 
    2     ->     4 
    3     ->     5 
    3     ->     6 
    5     ->     7 
    6     ->     8 
    7     ->     9 
davidson 5 60  |r|= 1.34  e= [0.00474363 0.05752702 0.08734113 0.17533717 0.1901001  0.19646346
 0.20491034 0.21913438 0.21914745 0.23564691]  max|de|= -0.2  lindep= 0.115
Old state -> New state
    5     ->     2 
    1     ->     5 
davidson 6 70  |r|= 1.25  e= [0.01508003 0.12724826 0.17433029 0.17533506 0.19009977 0.19728513
 0.2049106  0.21913438 0.21915353 0.23564691]  max|de|= 0.14  lindep= 0.16
Old state -> New state
    0     ->     1 
    3     ->     2 
    4     ->     3 
    6     ->     4 
    7     ->     5 
    8     ->     6 
    0     ->     7 
    9     ->     8 
davidson 7 80  |r|= 1.42  e= [0.00693016 0.07298389 0.17533376 0.19009995 0.20485517 0.21913439
 0.21915477 0.23275572 0.23564693 0.23564809]  max|de|= 0.218  lindep= 0.0931
root 2 converged  |r|= 2.01e-05  e= 0.17533375834831125  max|de|= -2.22e-16
root 5 converged  |r|= 2.27e-05  e= 0.2191343921506479  max|de|= 4.72e-16
davidson 8 10  |r|= 1.42  e= [0.00693016 0.07298389 0.17533376 0.19009995 0.20485517 0.21913439
 0.21915477 0.23275572 0.23564693 0.23564809]  max|de|= 4.72e-16  lindep= 0.297
Old state -> New state
    0     ->     1 
    4     ->     2 
    4     ->     3 
    2     ->     4 
    3     ->     5 
    4     ->     6 
    5     ->     7 
    6     ->     8 
    8     ->     9 
davidson 9 18  |r|= 1.34  e= [0.03813113 0.04959392 0.09291555 0.12651285 0.17533375 0.1901
 0.20493755 0.21913439 0.21915515 0.23564702]  max|de|= -0.112  lindep= 0.327
Old state -> New state
    1     ->     0 
    1     ->     2 
    1     ->     3 
    6     ->     7 
    7     ->     8 
    8     ->     9 
davidson 10 28  |r|= 1.39  e= [0.02137034 0.03651923 0.05775894 0.08467192 0.17533367 0.19009996
 0.20504045 0.20919957 0.21913439 0.21915764]  max|de|= 0.0351  lindep= 0.151
Old state -> New state
    0     ->     2 
    1     ->     3 
    2     ->     4 
    4     ->     5 
    5     ->     6 
    6     ->     7 
root 8 converged  |r|= 1.02e-05  e= 0.21913438849852848  max|de|= -9.03e-10
davidson 11 38  |r|= 1.35  e= [0.00905269 0.02597082 0.05231196 0.1212282  0.15396377 0.17533379
 0.1901     0.20485046 0.21913439 0.21915419]  max|de|= 0.0962  lindep= 0.0437
Old state -> New state
    5     ->     1 
    5     ->     2 
    6     ->     3 
    7     ->     4 
    8     ->     5 
    9     ->     6 
    4     ->     7 
    3     ->     8 
    4     ->     9 
davidson 12 47  |r|= 1.13  e= [0.12480064 0.1502349  0.17533381 0.19009999 0.20485945 0.21913439
 0.21915563 0.23564695 0.23571287 0.24587155]  max|de|= 0.116  lindep= 0.173
Old state -> New state
    0     ->     1 
    1     ->     2 
    2     ->     3 
    3     ->     4 
    4     ->     5 
    5     ->     6 
    6     ->     7 
    9     ->     8 
    7     ->     9 
root 6 converged  |r|= 4.76e-06  e= 0.2191343896205622  max|de|= -5.28e-10
davidson 13 57  |r|= 1.14  e= [0.05594847 0.08237758 0.14633701 0.17533385 0.19009999 0.20488825
 0.21913439 0.21915355 0.23259094 0.23564694]  max|de|= -0.0689  lindep= 0.0874
Old state -> New state
    3     ->     1 
    3     ->     2 
    4     ->     3 
    5     ->     4 
    6     ->     5 
    7     ->     6 
    9     ->     7 
    8     ->     9 
davidson 14 66  |r|= 1.06  e= [0.04980955 0.14785179 0.17533376 0.19009998 0.20488252 0.21913439
 0.21915457 0.23564691 0.23570929 0.2384296 ]  max|de|= -0.0275  lindep= 0.033
Old state -> New state
    0     ->     1 
    0     ->     2 
    2     ->     3 
    2     ->     4 
    3     ->     5 
    4     ->     6 
    5     ->     7 
    6     ->     8 
davidson 15 75  |r|= 1.13  e= [0.02709505 0.04836906 0.09690537 0.17230094 0.17533376 0.19009999
 0.20487455 0.21913439 0.2191545  0.23422753]  max|de|= 0.0471  lindep= 0.044
Old state -> New state
    2     ->     1 
    4     ->     2 
    5     ->     3 
    6     ->     4 
    7     ->     5 
    8     ->     6 
    4     ->     7 
    9     ->     8 
root 3 converged  |r|= 2.95e-07  e= 0.19009999213046846  max|de|= 4.74e-10
davidson 16 83  |r|= 1.22  e= [0.02181997 0.11075256 0.17533374 0.19009999 0.20487404 0.21913439
 0.21915491 0.22318531 0.23564692 0.23576135]  max|de|= 0.0479  lindep= 0.0319
root 2 converged  |r|= 2.12e-07  e= 0.1753337426022091  max|de|= 7.77e-16
root 5 converged  |r|= 5.79e-06  e= 0.219134388201247  max|de|= -5.83e-16
davidson 17 10  |r|= 1.22  e= [0.02181997 0.11075256 0.17533374 0.19009999 0.20487404 0.21913439
 0.21915491 0.22318531 0.23564692 0.23576135]  max|de|= -3.38e-13  lindep= 0.24
Old state -> New state
    0     ->     1 
    0     ->     2 
    2     ->     3 
    3     ->     4 
    4     ->     5 
    5     ->     6 
    6     ->     7 
    1     ->     8 
    8     ->     9 
davidson 18 17  |r|= 1.61  e= [0.00641573 0.02372785 0.02965443 0.17533374 0.19009999 0.20487011
 0.21913439 0.21915455 0.22185719 0.23564691]  max|de|= 0.111  lindep= 0.127
Old state -> New state
    0     ->     1 
    1     ->     3 
    3     ->     4 
    3     ->     5 
    4     ->     6 
    5     ->     8 
    6     ->     9 
root 9 converged  |r|= 3.3e-06  e= 0.21913438994176568  max|de|= 7.28e-10
davidson 19 25  |r|= 1.55  e= [0.00107902 0.01520581 0.04399521 0.1124723  0.1744584  0.17533372
 0.19009999 0.20021378 0.20487436 0.21913439]  max|de|= 0.0887  lindep= 0.132
Old state -> New state
    5     ->     2 
    5     ->     3 
    5     ->     4 
    6     ->     5 
    8     ->     6 
    9     ->     7 
    7     ->     8 
    7     ->     9 
davidson 20 34  |r|= 1.39  e= [0.00938673 0.08697549 0.16876081 0.17533375 0.18083965 0.19009999
 0.20487208 0.21913439 0.21915487 0.23564683]  max|de|= 0.0718  lindep= 0.192
Old state -> New state
    3     ->     1 
    3     ->     2 
    5     ->     3 
    6     ->     4 
    7     ->     5 
    8     ->     6 
    9     ->     7 
    1     ->     8 
    6     ->     9 
root 3 converged  |r|= 4.46e-08  e= 0.1900999911700506  max|de|= -3.91e-10
davidson 21 41  |r|= 1.39  e= [0.01459637 0.16266473 0.17533374 0.19009999 0.20487383 0.21913439
 0.21915472 0.23564686 0.23569837 0.2425242 ]  max|de|= 0.149  lindep= 0.0476
Old state -> New state
    2     ->     1 
    3     ->     2 
    4     ->     3 
    2     ->     4 
root 1 converged  |r|= 1.05e-07  e= 0.17533374243510386  max|de|= 4.66e-10
davidson 22 48  |r|=    1  e= [0.05035871 0.17533374 0.19009999 0.20487371 0.20695569 0.21913439
 0.21915475 0.23564685 0.23570257 0.28954942]  max|de|= 0.047  lindep= 0.113
Old state -> New state
    5     ->     4 
    6     ->     5 
    7     ->     6 
    8     ->     7 
    9     ->     8 
    4     ->     9 
davidson 23 55  |r|= 0.86  e= [0.00428895 0.17533374 0.19009999 0.20487359 0.21913439 0.21915476
 0.23564691 0.23570675 0.25036382 0.28552782]  max|de|= 0.0786  lindep= 0.0656
Old state -> New state
    0     ->     1 
    0     ->     2 
    1     ->     3 
    2     ->     4 
    3     ->     5 
    5     ->     6 
    4     ->     7 
    5     ->     8 
    6     ->     9 
davidson 24 62  |r|= 1.28  e= [0.00331118 0.05848801 0.13662584 0.17533374 0.19009999 0.20487356
 0.21860649 0.21913439 0.21915525 0.2356469 ]  max|de|= 0.132  lindep= 0.087
Old state -> New state
    3     ->     0 
    3     ->     1 
    4     ->     2 
    5     ->     3 
    7     ->     4 
    8     ->     5 
    9     ->     6 
    6     ->     7 
    2     ->     8 
    2     ->     9 
davidson 25 70  |r|= 0.759  e= [0.17533374 0.18299474 0.19009999 0.20487375 0.21913439 0.21915477
 0.23564693 0.23573089 0.2392561  0.26777262]  max|de|= 0.131  lindep= 0.153
Old state -> New state
    9     ->     0 
    8     ->     1 
    1     ->     2 
    0     ->     3 
    1     ->     4 
    2     ->     5 
    3     ->     6 
    4     ->     7 
    5     ->     8 
    6     ->     9 
root 7 converged  |r|= 7.62e-07  e= 0.21913438956605438  max|de|= 3.74e-11
davidson 26 77  |r|= 1.24  e= [0.00533999 0.03247502 0.11800177 0.17533374 0.18313455 0.19009999
 0.20487368 0.21913439 0.21915477 0.2356469 ]  max|de|= -0.262  lindep= 0.119
root 6 converged  |r|= 1.22e-05  e= 0.20487368050508817  max|de|= 5.75e-15
root 8 converged  |r|= 8.29e-07  e= 0.219154771239927  max|de|= -1.11e-16
davidson 27 10  |r|= 1.24  e= [0.00533999 0.03247502 0.11800177 0.17533374 0.18313455 0.19009999
 0.20487368 0.21913439 0.21915477 0.2356469 ]  max|de|= -1.58e-14  lindep= 0.33
Old state -> New state
    3     ->     0 
    5     ->     1 
    6     ->     2 
    7     ->     3 
    8     ->     4 
    9     ->     5 
    2     ->     6 
    4     ->     7 
davidson 28 15  |r|= 0.572  e= [0.17533374 0.19009999 0.20487359 0.21913439 0.21915477 0.2356469
 0.28734839 0.33084467]  max|de|= 0.169  lindep= 0.536
Old state -> New state
    6     ->     0 
    2     ->     1 
    0     ->     2 
    1     ->     3 
    2     ->     4 
    3     ->     5 
    4     ->     6 
    5     ->     7 
    6     ->     8 
    7     ->     9 
root 6 converged  |r|= 5.61e-07  e= 0.2191547702503157  max|de|= 2.43e-10
davidson 29 19  |r|= 1.46  e= [0.01439428 0.0293461  0.17533374 0.19009999 0.20487368 0.21913439
 0.21915477 0.2356469  0.25006639 0.35865079]  max|de|= -0.273  lindep= 0.171
Old state -> New state
    1     ->     2 
    2     ->     3 
    2     ->     4 
    3     ->     5 
    4     ->     6 
    5     ->     7 
    6     ->     8 
    7     ->     9 
davidson 30 25  |r|= 1.08  e= [0.01975606 0.06986837 0.14139214 0.16611291 0.17533374 0.19009999
 0.20487364 0.21913439 0.21915477 0.2356469 ]  max|de|= 0.112  lindep= 0.111
Old state -> New state
    3     ->     1 
    4     ->     2 
    5     ->     3 
    6     ->     4 
    8     ->     5 
    7     ->     6 
    8     ->     7 
    9     ->     8 
    3     ->     9 
davidson 31 31  |r|= 1.37  e= [0.08887286 0.13790453 0.17533374 0.19009999 0.2048736  0.21896839
 0.21913439 0.21915494 0.23564693 0.26092097]  max|de|= 0.0948  lindep= 0.174
Old state -> New state
    1     ->     0 
    0     ->     2 
    2     ->     3 
    3     ->     4 
    4     ->     5 
davidson 32 38  |r|= 1.41  e= [0.00327732 0.04694104 0.11977955 0.17533374 0.19009999 0.20487362
 0.21913439 0.21915477 0.23564689 0.24573958]  max|de|= -0.135  lindep= 0.149
Old state -> New state
    0     ->     1 
    3     ->     2 
davidson 33 45  |r|= 1.21  e= [0.0058337  0.08743696 0.16726534 0.17533374 0.19009999 0.20487362
 0.21913439 0.21915477 0.2356469  0.24548095]  max|de|= 0.0842  lindep= 0.0359
Old state -> New state
    0     ->     1 
    3     ->     2 
    4     ->     3 
    5     ->     4 
root 7 converged  |r|= 1.11e-07  e= 0.21915477166421474  max|de|= -1.09e-10
davidson 34 50  |r|= 1.22  e= [0.00620587 0.10796461 0.17533374 0.19009999 0.19995213 0.20487361
 0.21913439 0.21915477 0.23564689 0.24722293]  max|de|= 0.102  lindep= 0.0199
Old state -> New state
    2     ->     0 
    3     ->     1 
    5     ->     2 
    5     ->     3 
    6     ->     4 
    7     ->     5 
    8     ->     6 
    9     ->     7 
    4     ->     8 
    1     ->     9 
davidson 35 56  |r|= 0.681  e= [0.17533374 0.19009999 0.2048736  0.2109769  0.21913439 0.21915477
 0.2356469  0.24138303 0.2943472  0.29962498]  max|de|= 0.192  lindep= 0.215
Old state -> New state
    0     ->     1 
    1     ->     2 
    2     ->     3 
    2     ->     4 
    2     ->     5 
    4     ->     6 
    5     ->     7 
    6     ->     8 
    7     ->     9 
davidson 36 62  |r|= 1.18  e= [0.13424626 0.17533374 0.19009999 0.19819899 0.20322376 0.20487366
 0.21913439 0.21915477 0.2356469  0.23844193]  max|de|= -0.0411  lindep= 0.11
Old state -> New state
    1     ->     0 
    2     ->     1 
    5     ->     2 
    6     ->     3 
    7     ->     4 
    8     ->     5 
    9     ->     6 
    3     ->     7 
    4     ->     8 
    0     ->     9 
davidson 37 68  |r|= 0.511  e= [0.17533374 0.19009999 0.20487361 0.21913439 0.21915477 0.2356469
 0.25014011 0.26640861 0.27738963 0.27831012]  max|de|= 0.144  lindep= 0.333
Old state -> New state
    6     ->     0 
    0     ->     1 
    0     ->     2 
    0     ->     3 
    1     ->     4 
    2     ->     5 
    3     ->     6 
    4     ->     7 
    6     ->     8 
    5     ->     9 
root 5 converged  |r|= 4.52e-08  e= 0.20487361285163008  max|de|= -7.09e-10
davidson 38 73  |r|= 1.32  e= [0.04177332 0.12863966 0.17533374 0.18303985 0.19009999 0.20487361
 0.21913439 0.21915477 0.23543152 0.23564689]  max|de|= -0.208  lindep= 0.153
Old state -> New state
    3     ->     1 
    4     ->     3 
    5     ->     4 
    9     ->     8 
    8     ->     9 
davidson 39 78  |r|= 1.26  e= [0.04022291 0.09517306 0.17533374 0.19009999 0.19581634 0.20487361
 0.21913439 0.21915477 0.23564689 0.23600725]  max|de|= -0.0879  lindep= 0.0492
root 8 converged  |r|= 1.58e-05  e= 0.23564689263698552  max|de|= 3.89e-16
davidson 40 10  |r|= 1.26  e= [0.04022291 0.09517306 0.17533374 0.19009999 0.19581634 0.20487361
 0.21913439 0.21915477 0.23564689 0.23600725]  max|de|= 3.11e-14  lindep= 0.322
Old state -> New state
    0     ->     1 
    2     ->     3 
    3     ->     4 
    9     ->     8 
    8     ->     9 
davidson 41 14  |r|= 1.84  e= [0.00631791 0.11609348 0.17533374 0.18075741 0.19009999 0.20487361
 0.21913439 0.21915477 0.23531746 0.23564687]  max|de|= 0.0759  lindep= 0.301
Old state -> New state
    0     ->     1 
    0     ->     2 
    2     ->     3 
    9     ->     8 
    8     ->     9 
davidson 42 19  |r|= 1.53  e= [0.00316163 0.00686699 0.05121301 0.17533374 0.19009999 0.20487361
 0.21913439 0.21915477 0.2356469  0.23631889]  max|de|= 0.0449  lindep= 0.168
Old state -> New state
    1     ->     0 
    3     ->     1 
    4     ->     2 
    5     ->     3 
    6     ->     4 
    7     ->     5 
    9     ->     6 
    8     ->     7 
    9     ->     8 
    5     ->     9 
root 7 converged  |r|= 2.01e-05  e= 0.23564689495176455  max|de|= -1.12e-10
davidson 43 24  |r|= 0.976  e= [0.10399569 0.17533374 0.19009999 0.20487361 0.21913439 0.21915477
 0.22621756 0.23564689 0.23619944 0.33153885]  max|de|= 0.127  lindep= 0.323
Old state -> New state
    6     ->     0 
    0     ->     1 
    1     ->     2 
    2     ->     4 
    3     ->     5 
    4     ->     6 
    5     ->     7 
    7     ->     8 
    8     ->     9 
davidson 44 28  |r|= 1.33  e= [0.02657543 0.06561176 0.17533374 0.18671677 0.19009999 0.20487361
 0.21913439 0.21915477 0.2356469  0.23631182]  max|de|= -0.2  lindep= 0.187
Old state -> New state
    0     ->     1 
    2     ->     3 
davidson 45 32  |r|= 1.48  e= [0.01334681 0.11554292 0.17533374 0.17550198 0.19009999 0.20487361
 0.21913439 0.21915477 0.2356469  0.23618922]  max|de|= 0.089  lindep= 0.115
Old state -> New state
    2     ->     1 
    4     ->     2 
    5     ->     3 
    6     ->     4 
    7     ->     5 
    8     ->     6 
    9     ->     7 
    9     ->     8 
    1     ->     9 
davidson 46 36  |r|= 1.33  e= [0.05082262 0.17533374 0.19009999 0.20487361 0.21913439 0.21915477
 0.2356469  0.23582181 0.26320074 0.2853135 ]  max|de|= 0.17  lindep= 0.171
Old state -> New state
    0     ->     1 
    1     ->     2 
    2     ->     3 
    3     ->     4 
    3     ->     5 
    4     ->     6 
    5     ->     7 
    6     ->     8 
    7     ->     9 
davidson 47 41  |r|=  1.3  e= [0.02472519 0.09680467 0.17533374 0.19009999 0.20487361 0.21092473
 0.21913439 0.21915477 0.2356469  0.23633538]  max|de|= 0.046  lindep= 0.101
Old state -> New state
    2     ->     1 
    6     ->     5 
    7     ->     6 
root 8 converged  |r|= 1.89e-06  e= 0.23564689658997115  max|de|= 9.85e-10
davidson 48 46  |r|= 1.09  e= [0.02553838 0.15962028 0.17533374 0.19009999 0.20487361 0.21913439
 0.21915477 0.22015261 0.2356469  0.23612111]  max|de|= -0.0157  lindep= 0.0301
Old state -> New state
    2     ->     1 
    3     ->     2 
    4     ->     3 
    5     ->     4 
    6     ->     5 
    8     ->     6 
    9     ->     7 
    9     ->     8 
    1     ->     9 
davidson 49 50  |r|= 1.07  e= [0.02543578 0.17533374 0.19009999 0.20487361 0.21913439 0.21915477
 0.2356469  0.23578312 0.25819467 0.29246298]  max|de|= 0.133  lindep= 0.0163
Old state -> New state
    0     ->     1 
    1     ->     2 
    2     ->     3 
    3     ->     4 
    4     ->     5 
    5     ->     6 
    6     ->     7 
    8     ->     9 
root 6 converged  |r|= 1.03e-07  e= 0.21915477159774854  max|de|= 1.28e-10
davidson 50 54  |r|= 1.34  e= [0.02175164 0.028349   0.17533374 0.19009999 0.20487361 0.21913439
 0.21915477 0.23564691 0.25421285 0.27328756]  max|de|= 0.0151  lindep= 0.119
Old state -> New state
    2     ->     0 
    2     ->     1 
    3     ->     2 
    4     ->     3 
    5     ->     4 
    6     ->     5 
    8     ->     6 
    9     ->     8 
davidson 51 59  |r|= 1.14  e= [0.14425698 0.17533374 0.19009999 0.20487361 0.21913439 0.21915477
 0.2355718  0.2356469  0.27409978 0.28190009]  max|de|= -0.0311  lindep= 0.129
Old state -> New state
    3     ->     4 
    4     ->     5 
    5     ->     6 
    6     ->     8 
    8     ->     9 
davidson 52 64  |r|= 1.01  e= [0.11937038 0.17533374 0.19009999 0.20021624 0.20487361 0.21913439
 0.21915477 0.2356469  0.23614818 0.23861997]  max|de|= -0.0355  lindep= 0.0644
Old state -> New state
    0     ->     1 
    1     ->     2 
    2     ->     3 
    9     ->     8 
davidson 53 69  |r|= 1.05  e= [0.04318627 0.09215928 0.17533374 0.19009999 0.20487361 0.21913439
 0.21915477 0.23564689 0.23573768 0.23623783]  max|de|= -0.0762  lindep= 0.0876
Old state -> New state
    2     ->     1 
    3     ->     2 
    4     ->     3 
    5     ->     4 
    6     ->     5 
    7     ->     6 
    9     ->     8 
davidson 54 74  |r|= 0.966  e= [0.04421032 0.17533374 0.19009999 0.20487361 0.21913439 0.21915477
 0.23564412 0.23564683 0.23711482 0.25089175]  max|de|= 0.0147  lindep= 0.00852
Old state -> New state
    0     ->     1 
    0     ->     2 
    1     ->     3 
    2     ->     4 
    3     ->     5 
    4     ->     6 
    5     ->     7 
    7     ->     8 
    6     ->     9 
davidson 55 79  |r|= 1.21  e= [0.01011094 0.03676278 0.12901102 0.17533374 0.19009999 0.20487361
 0.21913439 0.21915477 0.2356469  0.23569339]  max|de|= 0.0848  lindep= 0.0921
root 8 converged  |r|= 4.98e-06  e= 0.23564689696330576  max|de|= -6.11e-16
davidson 56 10  |r|= 1.21  e= [0.01011094 0.03676278 0.12901102 0.17533374 0.19009999 0.20487361
 0.21913439 0.21915477 0.2356469  0.23569339]  max|de|= 3.35e-12  lindep= 0.243
Old state -> New state
    3     ->     2 
    4     ->     3 
    5     ->     4 
    6     ->     5 
    7     ->     6 
    8     ->     7 
    9     ->     8 
    2     ->     9 
davidson 57 14  |r|=  1.5  e= [0.02881335 0.1194183  0.17533374 0.19009999 0.20487361 0.21913439
 0.21915477 0.2356469  0.23581546 0.37426865]  max|de|= 0.245  lindep= 0.15
Old state -> New state
    4     ->     1 
    1     ->     9 
davidson 58 18  |r|= 1.45  e= [0.01027318 0.16630348 0.17533374 0.19009999 0.20487361 0.21913439
 0.21915477 0.2356469  0.23612916 0.27665417]  max|de|= 0.157  lindep= 0.166
Old state -> New state
    2     ->     1 
    3     ->     2 
    4     ->     3 
davidson 59 22  |r|= 1.62  e= [0.00741909 0.17533374 0.19009999 0.20192225 0.20487361 0.21913439
 0.21915477 0.2356469  0.23581257 0.34059377]  max|de|= 0.0639  lindep= 0.0478
Old state -> New state
    9     ->     1 
    1     ->     2 
    2     ->     3 
    2     ->     4 
    4     ->     5 
    5     ->     6 
    6     ->     7 
    7     ->     8 
    8     ->     9 
davidson 60 26  |r|= 1.14  e= [0.06613036 0.12776867 0.17533374 0.18988377 0.19009999 0.20487361
 0.21913439 0.21915477 0.2356469  0.23577576]  max|de|= -0.213  lindep= 0.249
Old state -> New state
    2     ->     0 
    4     ->     1 
    5     ->     2 
    5     ->     3 
    6     ->     4 
    7     ->     5 
    9     ->     6 
    8     ->     7 
    1     ->     8 
    1     ->     9 
davidson 61 30  |r|= 0.529  e= [0.17533374 0.19009999 0.20172833 0.20487361 0.21913439 0.21915477
 0.23561075 0.2356469  0.33543811 0.40416126]  max|de|= 0.276  lindep= 0.428
Old state -> New state
    8     ->     0 
    0     ->     1 
    1     ->     3 
    3     ->     4 
    4     ->     5 
    5     ->     6 
    6     ->     8 
    8     ->     9 
davidson 62 34  |r|=  1.3  e= [0.02480744 0.17533374 0.18770797 0.19009999 0.20487361 0.21913439
 0.21915477 0.23564689 0.23564787 0.25496825]  max|de|= -0.311  lindep= 0.0911
Old state -> New state
    0     ->     1 
    9     ->     2 
    1     ->     3 
    3     ->     4 
    4     ->     5 
    5     ->     6 
    6     ->     7 
    7     ->     8 
    8     ->     9 
davidson 63 39  |r|= 1.46  e= [0.00142327 0.05801887 0.13011231 0.17533374 0.19009999 0.20487361
 0.21913439 0.21915477 0.2356469  0.23574104]  max|de|= -0.125  lindep= 0.112
Old state -> New state
    3     ->     1 
    4     ->     2 
    5     ->     3 
    5     ->     4 
    6     ->     5 
    7     ->     6 
    8     ->     7 
    9     ->     8 
root 7 converged  |r|= 2.1e-06  e= 0.23564689622945306  max|de|= -8.45e-11
davidson 64 44  |r|= 1.39  e= [0.12504643 0.17533374 0.19009999 0.20487361 0.21157743 0.21913439
 0.21915477 0.2356469  0.23569861 0.24805735]  max|de|= 0.124  lindep= 0.204
Old state -> New state
    4     ->     0 
    5     ->     4 
    6     ->     5 
    7     ->     6 
    8     ->     7 
    9     ->     8 
    0     ->     9 
davidson 65 48  |r|=  1.4  e= [0.02912428 0.17533374 0.19009999 0.20487361 0.21913439 0.21915477
 0.2356469  0.23576583 0.23617762 0.29525388]  max|de|= -0.182  lindep= 0.12
davidson 66 52  |r|= 1.01  e= [0.018065   0.17533374 0.19009999 0.20487361 0.21913439 0.21915477
 0.2356469  0.23572532 0.23723235 0.27614599]  max|de|= -0.0191  lindep= 0.113
Old state -> New state
    1     ->     2 
    2     ->     3 
    3     ->     4 
    4     ->     5 
    5     ->     6 
    6     ->     8 
davidson 67 56  |r|= 0.961  e= [0.02044395 0.17041485 0.17533374 0.19009999 0.20487361 0.21913439
 0.21915477 0.23560658 0.2356469  0.28003546]  max|de|= -0.00492  lindep= 0.0432
Old state -> New state
    8     ->     7 
    9     ->     8 
davidson 68 60  |r|= 1.04  e= [0.01758722 0.16658424 0.17533374 0.19009999 0.20487361 0.21913439
 0.21915477 0.2356469  0.24559192 0.27808978]  max|de|= -0.0344  lindep= 0.0183
Old state -> New state
    2     ->     0 
    2     ->     1 
    3     ->     2 
    4     ->     3 
    5     ->     4 
    6     ->     5 
    7     ->     6 
    8     ->     7 
davidson 69 64  |r|= 0.764  e= [0.17533374 0.18721499 0.19009999 0.20487361 0.21913439 0.21915477
 0.2356469  0.2357191  0.23677524 0.27519101]  max|de|= 0.0119  lindep= 0.152
davidson 70 68  |r|= 0.502  e= [0.17533374 0.18103065 0.19009999 0.20487361 0.21913439 0.21915477
 0.2356469  0.2357464  0.23630628 0.27456743]  max|de|= -0.00618  lindep= 0.0489
Old state -> New state
    3     ->     0 
    0     ->     1 
    1     ->     2 
    2     ->     3 
    2     ->     4 
    3     ->     5 
    4     ->     6 
    5     ->     7 
    6     ->     8 
    7     ->     9 
davidson 71 72  |r|= 1.24  e= [0.07823829 0.17533374 0.18049715 0.18727376 0.19009999 0.20487361
 0.21913439 0.21915477 0.2356469  0.23574596]  max|de|= -0.127  lindep= 0.159
Old state -> New state
    0     ->     1 
    1     ->     2 
    4     ->     3 
    5     ->     4 
    6     ->     5 
    7     ->     6 
    8     ->     7 
    9     ->     8 
    0     ->     9 
davidson 72 76  |r|= 1.46  e= [0.04893156 0.13403423 0.17533374 0.19009999 0.20487361 0.21913439
 0.21915477 0.2356469  0.23570977 0.23664369]  max|de|= 0.158  lindep= 0.0923
Old state -> New state
    0     ->     1 
    0     ->     3 
    3     ->     4 
    4     ->     5 
    5     ->     6 
    6     ->     7 
    7     ->     8 
    8     ->     9 
root 4 converged  |r|= 2.69e-08  e= 0.19009999114192405  max|de|= -3.54e-13
davidson 73 80  |r|= 1.14  e= [0.01066926 0.08869332 0.17533374 0.17906744 0.19009999 0.20487361
 0.21913439 0.21915477 0.2356469  0.23570868]  max|de|= 0.13  lindep= 0.0828
davidson 74 10  |r|= 1.14  e= [0.01066926 0.08869332 0.17533374 0.17906744 0.19009999 0.20487361
 0.21913439 0.21915477 0.2356469  0.23570868]  max|de|= 4.13e-12  lindep= 0.219
Old state -> New state
    0     ->     1 
    0     ->     2 
    2     ->     3 
davidson 75 14  |r|= 1.38  e= [0.0097648  0.05817229 0.10406077 0.17533374 0.19009999 0.20487361
 0.21913439 0.21915477 0.2356469  0.2357165 ]  max|de|= 0.0934  lindep= 0.0584
Old state -> New state
    3     ->     2 
    4     ->     3 
    5     ->     4 
    6     ->     5 
    7     ->     6 
    8     ->     7 
    9     ->     8 
    2     ->     9 
davidson 76 18  |r|= 1.09  e= [0.00548245 0.05796308 0.17533374 0.19009999 0.20487361 0.21913439
 0.21915477 0.2356469  0.23570827 0.26750661]  max|de|= 0.163  lindep= 0.073
Old state -> New state
    2     ->     1 
davidson 77 22  |r|= 1.17  e= [0.00327738 0.14106509 0.17533374 0.19009999 0.20487361 0.21913439
 0.21915477 0.2356469  0.23571058 0.34958199]  max|de|= 0.0821  lindep= 0.271
Old state -> New state
    0     ->     1 
    1     ->     9 
davidson 78 26  |r|= 1.12  e= [0.01559833 0.10666951 0.17533374 0.19009999 0.20487361 0.21913439
 0.21915477 0.2356469  0.23570937 0.30163725]  max|de|= 0.161  lindep= 0.117
Old state -> New state
    2     ->     1 
    3     ->     2 
    4     ->     3 
    5     ->     4 
    6     ->     5 
    7     ->     6 
    8     ->     7 
    1     ->     8 
davidson 79 30  |r|= 1.14  e= [0.01532119 0.17533374 0.19009999 0.20487361 0.21913439 0.21915477
 0.2356469  0.23571139 0.24171104 0.30742881]  max|de|= 0.135  lindep= 0.0317
Old state -> New state
    9     ->     8 
    8     ->     9 
davidson 80 34  |r|= 1.15  e= [0.01375917 0.17533374 0.19009999 0.20487361 0.21913439 0.21915477
 0.2356469  0.23570974 0.28999266 0.30831864]  max|de|= 0.0666  lindep= 0.0254
Old state -> New state
    0     ->     1 
    0     ->     2 
    1     ->     3 
    2     ->     4 
    3     ->     5 
    4     ->     6 
    5     ->     7 
    7     ->     8 
    6     ->     9 
davidson 81 38  |r|= 1.16  e= [0.0032615  0.01527947 0.12882807 0.17533374 0.19009999 0.20487361
 0.21913439 0.21915477 0.23260154 0.2356469 ]  max|de|= 0.115  lindep= 0.0942
Old state -> New state
    3     ->     0 
    4     ->     1 
    5     ->     2 
    6     ->     3 
    7     ->     4 
    9     ->     5 
    8     ->     6 
    2     ->     7 
    2     ->     8 
    2     ->     9 
davidson 82 42  |r|= 0.534  e= [0.17533374 0.19009999 0.20487361 0.21913439 0.21915477 0.2356469
 0.23571991 0.24411919 0.28039981 0.31061391]  max|de|= 0.182  lindep= 0.53
Old state -> New state
    0     ->     1 
    1     ->     2 
    2     ->     3 
    3     ->     4 
    4     ->     5 
    5     ->     6 
    6     ->     7 
    7     ->     8 
    7     ->     9 
davidson 83 46  |r|= 0.684  e= [0.17533374 0.1792034  0.19009999 0.20487361 0.21913439 0.21915477
 0.2356469  0.23571008 0.250108   0.26796165]  max|de|= 0.0238  lindep= 0.211
Old state -> New state
    1     ->     0 
    0     ->     1 
    9     ->     6 
    6     ->     7 
    7     ->     8 
    8     ->     9 
davidson 84 50  |r|= 1.13  e= [0.13596327 0.17533374 0.19009999 0.20487361 0.21913439 0.21915477
 0.23272215 0.2356469  0.23570895 0.24863614]  max|de|= -0.0432  lindep= 0.194
Old state -> New state
    6     ->     4 
    4     ->     5 
    5     ->     6 
    6     ->     7 
    7     ->     8 
    8     ->     9 
davidson 85 54  |r|= 1.24  e= [0.13000702 0.17533374 0.19009999 0.20487361 0.2129707  0.21913439
 0.21915477 0.22937538 0.2356469  0.23570743]  max|de|= -0.0198  lindep= 0.119
Old state -> New state
    1     ->     2 
    2     ->     3 
    3     ->     4 
    8     ->     7 
    9     ->     8 
    7     ->     9 
davidson 86 58  |r|= 1.08  e= [0.10062534 0.17533374 0.18506847 0.19009999 0.20487361 0.21913439
 0.21915477 0.2356469  0.23571063 0.23675624]  max|de|= -0.0294  lindep= 0.0965
Old state -> New state
    0     ->     1 
    1     ->     2 
    9     ->     5 
    5     ->     6 
    6     ->     7 
    7     ->     8 
    8     ->     9 
davidson 87 62  |r|= 1.14  e= [0.04837472 0.08388095 0.17533374 0.19009999 0.20487361 0.21664607
 0.21913439 0.21915477 0.2356469  0.23570855]  max|de|= -0.0523  lindep= 0.105
Old state -> New state
    2     ->     1 
    6     ->     5 
    7     ->     6 
    8     ->     7 
    9     ->     8 
    5     ->     9 
davidson 88 66  |r|= 1.39  e= [0.03276895 0.17533374 0.1786559  0.19009999 0.20487361 0.21913439
 0.21915477 0.2356469  0.2357106  0.23645418]  max|de|= 0.0198  lindep= 0.0499
Old state -> New state
    0     ->     1 
    1     ->     2 
davidson 89 70  |r|= 1.34  e= [0.02597363 0.12950902 0.17533374 0.19009999 0.20487361 0.21913439
 0.21915477 0.2356469  0.23571049 0.23664217]  max|de|= 0.0967  lindep= 0.0323
Old state -> New state
    4     ->     1 
davidson 90 74  |r|= 1.35  e= [0.02557218 0.10705742 0.17533374 0.19009999 0.20487361 0.21913439
 0.21915477 0.2356469  0.23571035 0.23666205]  max|de|= -0.0978  lindep= 0.00694
Old state -> New state
    2     ->     1 
davidson 91 78  |r|= 1.38  e= [0.01384247 0.16661642 0.17533374 0.19009999 0.20487361 0.21913439
 0.21915477 0.2356469  0.23571034 0.23670421]  max|de|= -0.0117  lindep= 0.0398
davidson 92 10  |r|= 1.38  e= [0.01384247 0.16661642 0.17533374 0.19009999 0.20487361 0.21913439
 0.21915477 0.2356469  0.23571034 0.23670421]  max|de|= -7.83e-13  lindep= 0.28
Old state -> New state
    0     ->     1 
    2     ->     3 
    3     ->     4 
    4     ->     5 
    5     ->     6 
    6     ->     7 
    7     ->     8 
    8     ->     9 
davidson 93 14  |r|= 1.37  e= [0.01371967 0.05959424 0.17035375 0.17533374 0.19009999 0.20487361
 0.21913439 0.21915477 0.2356469  0.23571045]  max|de|= 0.0458  lindep= 0.0165
Old state -> New state
    2     ->     1 
    1     ->     2 
davidson 94 18  |r|= 1.38  e= [0.01187278 0.05313528 0.14225882 0.17533374 0.19009999 0.20487361
 0.21913439 0.21915477 0.2356469  0.23570996]  max|de|= -0.117  lindep= 0.149
Old state -> New state
    3     ->     1 
    4     ->     2 
    5     ->     3 
    6     ->     4 
    7     ->     5 
    8     ->     6 
    9     ->     7 
    2     ->     8 
    2     ->     9 
davidson 95 22  |r|= 1.26  e= [0.09112894 0.17533374 0.19009999 0.20487361 0.21913439 0.21915477
 0.2356469  0.23571055 0.23658884 0.32527307]  max|de|= 0.183  lindep= 0.343
Old state -> New state
    1     ->     2 
    2     ->     4 
    3     ->     5 
    4     ->     6 
    5     ->     7 
    6     ->     8 
    7     ->     9 
davidson 96 26  |r|= 1.11  e= [0.05783194 0.17533374 0.17604602 0.18972034 0.19009999 0.20487361
 0.21913439 0.21915477 0.2356469  0.23571101]  max|de|= -0.0333  lindep= 0.231
Old state -> New state
    4     ->     2 
    5     ->     3 
    6     ->     4 
    7     ->     5 
    8     ->     6 
    9     ->     7 
    3     ->     8 
    3     ->     9 
davidson 97 30  |r|= 0.976  e= [0.03356562 0.17533374 0.19009999 0.20487361 0.21913439 0.21915477
 0.2356469  0.23571052 0.23641883 0.23990849]  max|de|= 0.0502  lindep= 0.118
Old state -> New state
    8     ->     9 
davidson 98 34  |r|= 0.975  e= [0.01742695 0.17533374 0.19009999 0.20487361 0.21913439 0.21915477
 0.2356469  0.2357105  0.23658544 0.2680085 ]  max|de|= 0.0316  lindep= 0.192
Old state -> New state
    8     ->     0 
    8     ->     4 
    4     ->     5 
    5     ->     6 
    6     ->     7 
    7     ->     8 
    8     ->     9 
davidson 99 38  |r|= 1.22  e= [0.11530185 0.17533374 0.19009999 0.20487361 0.21300973 0.21913439
 0.21915477 0.2356469  0.23571084 0.23642158]  max|de|= -0.121  lindep= 0.247
    CPU time for TDDFT   1674.86 sec, wall time     60.35 sec
TD-SCF states [0, 4, 8, 9] not converged.
Excited State energies (eV)
[3.13752312 4.77107415 5.17288424 5.57489496 5.79629002 5.96295046
 5.9635051  6.41227866 6.41401858 6.43335875]
