 
:: initializing oneAPI environment ...
   slurm_script: BASH_VERSION = 4.2.46(1)-release
   args: Using "$@" for setvars.sh arguments: --force
:: advisor -- latest
:: ccl -- latest
:: clck -- latest
:: compiler -- latest
:: dal -- latest
:: debugger -- latest
:: dev-utilities -- latest
:: dnnl -- latest
:: dpcpp-ct -- latest
:: dpl -- latest
:: inspector -- latest
:: intelpython -- latest
:: ipp -- latest
:: ippcp -- latest
:: ipp -- latest
:: itac -- latest
:: mkl -- latest
:: mpi -- latest
:: tbb -- latest
:: vpl -- latest
:: vtune -- latest
:: oneAPI environment initialized ::
 
SLURM_CPUS_PER_TASK = 28
SLURM_MEM_PER_NODE = 127949
#INFO: **** input file is /home/yangjunjie/work/py-ch3-cl/work/step_8/main.py ****
import sys
import pyscf
from pyscf import tdscf

def main(xyz_file, basis="631g*", xc="b3lyp", output="ene.out"):
    xyz = None

    with open(xyz_file, "r") as xyz:
        xyz = xyz.readlines()[2:]
        xyz = "".join(xyz)

    mol = pyscf.gto.Mole()
    mol.atom = xyz
    mol.basis = basis
    mol.verbose = 5
    mol.build()

    if xc is not None and xc != "hf":
        mf = pyscf.scf.RKS(mol)
        mf.xc = xc
        mf.kernel()
    else:
        mf = pyscf.scf.RHF(mol)
        mf.kernel()

    ene_mf = mf.e_tot

    tda = pyscf.tdscf.TDA(mf)
    tda.nstates = 10
    tda.kernel()
    ene_tda = tda.e[:5]
    dip_tda = tda.transition_dipole()[:5]

    rpa = pyscf.tdscf.RPA(mf)
    rpa.nstates = 10
    rpa.kernel()
    ene_rpa = rpa.e[:5]
    dip_rpa = rpa.transition_dipole()[:5]

    with open(output, "w") as f:
        f.write(f"RKS energy: {ene_mf: 12.8f}\n")
        f.write("TDA results:\n")
        for i, (ene, dip) in enumerate(zip(ene_tda, dip_tda)):
            f.write(f" {i:2d} {ene: 12.8f} {dip[0]: 12.8f} {dip[1]: 12.8f} {dip[2]: 12.8f}\n")
        
        f.write("\nRPA results:\n")
        for i, (ene, dip) in enumerate(zip(ene_rpa, dip_rpa)):
            f.write(f" {i:2d} {ene: 12.8f} {dip[0]: 12.8f} {dip[1]: 12.8f} {dip[2]: 12.8f}\n")

if __name__ == "__main__":
    xyz = sys.argv[1]
    main(xyz, basis="631g*", xc="b3lyp", output="out.log")
#INFO: ******************** input file end ********************


System: uname_result(system='Linux', node='pauling049', release='3.10.0-327.36.3.el7.x86_64', version='#1 SMP Thu Oct 20 04:56:07 EDT 2016', machine='x86_64')  Threads 28
Python 3.9.7 (default, Oct 27 2021, 01:23:21) 
[GCC 9.3.0]
numpy 1.21.2  scipy 1.6.2
Date: Tue Sep 27 23:12:41 2022
PySCF version 2.0.1
PySCF path  /home/yangjunjie/packages/pyscf/pyscf-main
GIT ORIG_HEAD 14b880cdc4bf7bb64f3989a147c0b04622efc498
GIT HEAD (branch master) 9d5b5bd309d1cc55fbd1a0ec76e26b5b0c7f76af

[ENV] PYSCF_MAX_MEMORY 127949
[ENV] PYSCF_TMPDIR /scratch/global/yangjunjie/
[CONFIG] conf_file /home/yangjunjie/.pyscf_conf.py
[INPUT] verbose = 5
[INPUT] max_memory = 127949 
[INPUT] num. atoms = 16
[INPUT] num. electrons = 68
[INPUT] charge = 0
[INPUT] spin (= nelec alpha-beta = 2S) = 0
[INPUT] symmetry False subgroup None
[INPUT] Mole.unit = angstrom
[INPUT]  1 C      0.000000010000   1.167654100000   0.988398830000 AA    0.000000018897   2.206546457226   1.867803090541 Bohr
[INPUT]  2 C      0.000000000000   1.193125000000   2.374088130000 AA    0.000000000000   2.254679482372   4.486376361281 Bohr
[INPUT]  3 C     -0.000000010000  -0.011685770000   3.073414190000 AA   -0.000000018897  -0.022082904855   5.807911086452 Bohr
[INPUT]  4 C     -0.000000010000  -1.207094600000   2.351778470000 AA   -0.000000018897  -2.281078200441   4.444217213949 Bohr
[INPUT]  5 C      0.000000000000  -1.156393150000   0.969989660000 AA    0.000000000000  -2.185266345823   1.833014801060 Bohr
[INPUT]  6 N     -0.000000010000   0.011549380000   0.319378030000 AA   -0.000000018897   0.021825165109   0.603537006903 Bohr
[INPUT]  7 C      0.000000090000   0.005987480000  -1.184489920000 AA    0.000000170075   0.011314697376  -2.238361546108 Bohr
[INPUT]  8 H      0.000000010000   2.081719610000   0.390114470000 AA    0.000000018897   3.933879931036   0.737209505530 Bohr
[INPUT]  9 H      0.000000000000   2.147357390000   2.888902530000 AA    0.000000000000   4.057917358661   5.459234582263 Bohr
[INPUT] 10 H     -0.000000010000  -0.021324930000   4.150179470000 AA   -0.000000018897  -0.040298277326   7.842702566093 Bohr
[INPUT] 11 H     -0.000000010000  -2.169580510000   2.851745220000 AA   -0.000000018897  -4.099912969094   5.389017442838 Bohr
[INPUT] 12 H      0.000000000000  -2.060472970000   0.351959240000 AA    0.000000000000  -3.893729600369   0.665106570610 Bohr
[INPUT] 13 H     -0.000000030000   1.033792460000  -1.549242790000 AA   -0.000000056692   1.953584619040  -2.927644573557 Bohr
[INPUT] 14 H     -0.884980400000  -0.500320700000  -1.557242600000 AA   -1.672370581608  -0.945469097451  -2.942762023506 Bohr
[INPUT] 15 H      0.884980350000  -0.500320620000  -1.557242580000 AA    1.672370487122  -0.945468946273  -2.942761985711 Bohr
[INPUT] 16 Cl    -0.000000010000  -0.005729560000  -4.087984830000 AA   -0.000000018897  -0.010827299214  -7.725171730077 Bohr
[INPUT] ---------------- BASIS SET ---------------- 
[INPUT] l, kappa, [nprim/nctr], expnt,             c_1 c_2 ...
[INPUT] N
[INPUT] 0    0    [6    /1   ]  4173.511          0.0018348
                                627.4579          0.013995
                                142.9021          0.068587
                                40.23433          0.232241
                                12.82021          0.46907
                                4.390437          0.360455
[INPUT] 0    0    [3    /1   ]  11.626358         -0.114961
                                2.71628           -0.169118
                                0.772218          1.145852
[INPUT] 0    0    [1    /1   ]  0.2120313            1
[INPUT] 1    0    [3    /1   ]  11.626358         0.06758
                                2.71628           0.323907
                                0.772218          0.740895
[INPUT] 1    0    [1    /1   ]  0.2120313            1
[INPUT] 2    0    [1    /1   ]  0.8                  1
[INPUT] Cl
[INPUT] 0    0    [6    /1   ]  25180.1           0.001833
                                3780.35           0.014034
                                860.474           0.069097
                                242.145           0.237452
                                77.3349           0.483034
                                26.247            0.339856
[INPUT] 0    0    [6    /1   ]  491.765           -0.0022974
                                116.984           -0.030714
                                37.4153           -0.112528
                                13.7834           0.045016
                                5.45215           0.589353
                                2.22588           0.465206
[INPUT] 0    0    [3    /1   ]  3.18649           -0.25183
                                1.14427           0.061589
                                0.420377          1.06018
[INPUT] 0    0    [1    /1   ]  0.142657             1
[INPUT] 1    0    [6    /1   ]  491.765           0.0039894
                                116.984           0.030318
                                37.4153           0.12988
                                13.7834           0.327951
                                5.45215           0.453527
                                2.22588           0.252154
[INPUT] 1    0    [3    /1   ]  3.18649           -0.014299
                                1.14427           0.323572
                                0.420377          0.743507
[INPUT] 1    0    [1    /1   ]  0.142657             1
[INPUT] 2    0    [1    /1   ]  0.75                 1
[INPUT] C
[INPUT] 0    0    [6    /1   ]  3047.5249         0.0018347
                                457.36951         0.0140373
                                103.94869         0.0688426
                                29.210155         0.2321844
                                9.286663          0.4679413
                                3.163927          0.362312
[INPUT] 0    0    [3    /1   ]  7.8682724         -0.1193324
                                1.8812885         -0.1608542
                                0.5442493         1.1434564
[INPUT] 0    0    [1    /1   ]  0.1687144            1
[INPUT] 1    0    [3    /1   ]  7.8682724         0.0689991
                                1.8812885         0.316424
                                0.5442493         0.7443083
[INPUT] 1    0    [1    /1   ]  0.1687144            1
[INPUT] 2    0    [1    /1   ]  0.8                  1
[INPUT] H
[INPUT] 0    0    [3    /1   ]  18.731137         0.0334946
                                2.8253937         0.23472695
                                0.6401217         0.81375733
[INPUT] 0    0    [1    /1   ]  0.1612778            1

nuclear repulsion = 380.473047623723
number of shells = 66
number of NR pGTOs = 272
number of NR cGTOs = 132
basis = 631g*
ecp = {}
CPU time:         0.36


******** <class 'pyscf.dft.rks.RKS'> ********
method = RKS
initial guess = minao
damping factor = 0
level_shift factor = 0
DIIS = <class 'pyscf.scf.diis.CDIIS'>
diis_start_cycle = 1
diis_space = 8
SCF conv_tol = 1e-09
SCF conv_tol_grad = None
SCF max_cycles = 50
direct_scf = True
direct_scf_tol = 1e-13
chkfile to save SCF result = /scratch/global/yangjunjie/tmpppnhf_hx
max_memory 127949 MB (current use 81 MB)
XC library pyscf.dft.libxc version 5.2.0
    S. Lehtola, C. Steigemann, M. J. Oliveira, and M. A. Marques, SoftwareX 7, 1 (2018)
XC functionals = b3lyp
    P. A. M. Dirac, Math. Proc. Cambridge Philos. Soc. 26, 376 (1930)
    F. Bloch, Z. Phys. 57, 545 (1929)
    A. D. Becke, Phys. Rev. A 38, 3098 (1988)
    C. Lee, W. Yang, and R. G. Parr, Phys. Rev. B 37, 785 (1988)
    B. Miehlich, A. Savin, H. Stoll, and H. Preuss, Chem. Phys. Lett. 157, 200 (1989)
    S. H. Vosko, L. Wilk, and M. Nusair, Can. J. Phys. 58, 1200 (1980)
radial grids: 
    Treutler-Ahlrichs [JCP 102, 346 (1995); DOI:10.1063/1.469408] (M4) radial grids
    
becke partition: Becke, JCP 88, 2547 (1988); DOI:10.1063/1.454033
pruning grids: <function nwchem_prune at 0x7f28205d8ee0>
grids dens level: 3
symmetrized grids: False
atomic radii adjust function: <function treutler_atomic_radii_adjust at 0x7f28205d8e50>
small_rho_cutoff = 1e-07
Set gradient conv threshold to 3.16228e-05
atom C rad-grids = 75, ang-grids = [ 50  50  50  50  50  50  50  50  50  50  50  50  50  50  50  50  50  50
  50  50  50  50  50  86  86  86  86  86  86  86  86  86  86 266 266 266
 266 266 266 266 302 302 302 302 302 302 302 302 302 302 302 302 302 302
 302 302 302 302 302 302 266 266 266 266 266 266 266 266 266 266 266 266
 266 266 266]
atom N rad-grids = 75, ang-grids = [ 50  50  50  50  50  50  50  50  50  50  50  50  50  50  50  50  50  50
  50  50  50  50  50  86  86  86  86  86  86  86  86  86 266 266 266 266
 266 266 266 302 302 302 302 302 302 302 302 302 302 302 302 302 302 302
 302 302 302 302 266 266 266 266 266 266 266 266 266 266 266 266 266 266
 266 266 266]
atom H rad-grids = 50, ang-grids = [ 50  50  50  50  50  50  50  50  50  50  50  50  50  50  86  86  86  86
 266 266 266 266 302 302 302 302 302 302 302 302 302 302 302 302 302 266
 266 266 266 266 266 266 266 266 266 266 266 266 266 266]
atom Cl rad-grids = 80, ang-grids = [ 50  50  50  50  50  50  50  50  50  50  50  50  50  50  50  50  50  50
  50  50  50  50  50  50  86  86  86  86  86  86  86  86  86  86  86  86
  86 350 350 350 350 350 350 350 350 350 434 434 434 434 434 434 434 434
 434 434 434 434 434 434 434 434 434 434 350 350 350 350 350 350 350 350
 350 350 350 350 350 350 350 350]
tot grids = 196530
Drop grids 33681
    CPU time for setting up grids      3.22 sec, wall time      0.14 sec
nelec by numeric integration = 67.97675004209052
    CPU time for vxc      6.09 sec, wall time      0.22 sec
E1 = -1774.1395556909529  Ecoul = 714.9821736102928  Exc = -70.41135242095734
init E= -749.095686877894
cond(S) = 6711.623592046559
    CPU time for initialize scf     17.06 sec, wall time      0.70 sec
  HOMO = -0.296475342867046  LUMO = -0.105973663124072
  mo_energy =
[-1.01593513e+02 -1.44236445e+01 -1.02918522e+01 -1.02911816e+01
 -1.02902604e+01 -1.02856971e+01 -1.02852885e+01 -1.02851736e+01
 -9.53312727e+00 -7.28873344e+00 -7.28873235e+00 -7.28873118e+00
 -1.12802539e+00 -9.61405951e-01 -8.90593471e-01 -8.45199432e-01
 -8.09933887e-01 -7.18893999e-01 -7.03944838e-01 -5.82949170e-01
 -5.41840759e-01 -5.17480195e-01 -4.89697531e-01 -4.86656082e-01
 -4.70667019e-01 -4.28729959e-01 -4.12762895e-01 -3.97971863e-01
 -3.95864240e-01 -3.56123229e-01 -3.55261377e-01 -3.50053333e-01
 -3.20027830e-01 -2.96475343e-01 -1.05973663e-01 -7.91131810e-02
  3.29844032e-02  6.00594112e-02  7.92580513e-02  8.92403810e-02
  1.03169319e-01  1.17023890e-01  1.27280643e-01  1.39419027e-01
  1.40190343e-01  1.54411449e-01  2.30045305e-01  2.34532999e-01
  2.52894039e-01  2.70496853e-01  3.38714306e-01  3.84183789e-01
  4.04880837e-01  4.18551672e-01  4.21559820e-01  4.51000197e-01
  4.54130414e-01  4.76317758e-01  4.95423027e-01  5.22602702e-01
  5.29750744e-01  5.41559704e-01  5.49193367e-01  5.52615356e-01
  5.71476077e-01  5.76053823e-01  5.88301163e-01  6.15360123e-01
  6.57432526e-01  6.74005619e-01  7.05210042e-01  7.55649820e-01
  7.67922481e-01  7.73723847e-01  7.74880418e-01  7.87621972e-01
  7.98514271e-01  8.08549789e-01  8.09893261e-01  8.25610525e-01
  8.57880046e-01  8.66161451e-01  8.90190208e-01  8.98599306e-01
  9.07278166e-01  9.44291324e-01  9.76789235e-01  9.88124829e-01
  1.04525422e+00  1.07263215e+00  1.12237450e+00  1.17107264e+00
  1.17525839e+00  1.20593309e+00  1.28664830e+00  1.34698045e+00
  1.36546689e+00  1.40196953e+00  1.40684496e+00  1.41102300e+00
  1.44004351e+00  1.46083885e+00  1.66402344e+00  1.73399855e+00
  1.79594671e+00  1.83324643e+00  1.84908716e+00  1.85769583e+00
  1.86565993e+00  1.90963143e+00  1.98319337e+00  2.06035745e+00
  2.07305397e+00  2.08720472e+00  2.09054622e+00  2.13113208e+00
  2.16747079e+00  2.23093234e+00  2.23810118e+00  2.25956365e+00
  2.33129214e+00  2.36421787e+00  2.49103807e+00  2.51717316e+00
  2.60698477e+00  2.62317218e+00  2.65665410e+00  2.68622270e+00
  2.71006931e+00  2.78421285e+00  2.97950985e+00  3.36178120e+00]
nelec by numeric integration = 68.00008305476544
    CPU time for vxc      5.88 sec, wall time      0.21 sec
E1 = -1780.7516546187164  Ecoul = 723.1096484446638  Exc = -70.81417692518319
cycle= 1 E= -747.983135475513  delta_E= 1.11  |g|= 0.565  |ddm|= 3.85
    CPU time for cycle= 1      6.38 sec, wall time      0.23 sec
  HOMO = -0.021103723314976  LUMO = -0.00817391280673205
  mo_energy =
[-1.00945187e+02 -1.46748594e+01 -1.03716002e+01 -1.03686712e+01
 -1.02191802e+01 -1.02022498e+01 -1.02019712e+01 -1.01864537e+01
 -8.93788041e+00 -6.68904605e+00 -6.68887619e+00 -6.68886694e+00
 -1.17414662e+00 -9.07392248e-01 -8.98894750e-01 -7.91972372e-01
 -7.57902529e-01 -7.14750786e-01 -6.16674535e-01 -5.97847829e-01
 -5.97260397e-01 -5.58844981e-01 -5.37022793e-01 -5.27739141e-01
 -4.47868655e-01 -4.40739608e-01 -4.29923457e-01 -4.23876915e-01
 -4.20563339e-01 -3.69608486e-01 -3.66635567e-01 -1.53593646e-01
 -1.01987397e-01 -2.11037233e-02 -8.17391281e-03 -7.42621693e-03
  1.40874732e-02  5.20339187e-02  5.32365766e-02  5.95733471e-02
  8.57455371e-02  1.06525521e-01  1.18922238e-01  1.38288580e-01
  1.45381748e-01  1.76821184e-01  1.88184723e-01  2.14230479e-01
  2.34460586e-01  2.53688003e-01  3.54676186e-01  3.64998964e-01
  3.95634587e-01  4.31996006e-01  4.48516662e-01  4.79031814e-01
  4.80407661e-01  4.97484510e-01  5.16937690e-01  5.30009781e-01
  5.49478452e-01  5.55718004e-01  5.71085472e-01  5.88174850e-01
  6.12967135e-01  6.55936512e-01  6.71559256e-01  7.06003959e-01
  7.09002128e-01  7.19249506e-01  7.28917052e-01  7.32818725e-01
  7.36087957e-01  7.82860042e-01  7.85932872e-01  8.35901352e-01
  8.51861097e-01  8.68226089e-01  8.83841367e-01  9.04000975e-01
  9.13895985e-01  9.31339941e-01  9.94859069e-01  1.01399395e+00
  1.01722239e+00  1.09626322e+00  1.11942472e+00  1.13085729e+00
  1.15641272e+00  1.22533659e+00  1.23984078e+00  1.24005613e+00
  1.24817734e+00  1.25051095e+00  1.28761829e+00  1.34233422e+00
  1.34409400e+00  1.35688418e+00  1.36159810e+00  1.39688213e+00
  1.40724333e+00  1.41016457e+00  1.60643308e+00  1.72594638e+00
  1.75468683e+00  1.79574654e+00  1.83648727e+00  1.83963268e+00
  1.85613383e+00  1.91377177e+00  1.97014660e+00  2.02494381e+00
  2.03139033e+00  2.06187052e+00  2.07323946e+00  2.08995030e+00
  2.17703693e+00  2.21016100e+00  2.23878231e+00  2.27052809e+00
  2.32235936e+00  2.33173109e+00  2.46289807e+00  2.48873721e+00
  2.58406938e+00  2.59233316e+00  2.63220977e+00  2.66148755e+00
  2.70016651e+00  2.75996015e+00  2.94239128e+00  3.33604905e+00]
nelec by numeric integration = 68.00012078613814
    CPU time for vxc      6.20 sec, wall time      0.22 sec
E1 = -1778.0434761873619  Ecoul = 725.333929212574  Exc = -70.51701617845862
cycle= 2 E= -742.753515529523  delta_E= 5.23  |g|= 2.75  |ddm|= 5.02
    CPU time for cycle= 2      6.71 sec, wall time      0.24 sec
  HOMO = -0.164243464206448  LUMO = -0.0710337748583053
  mo_energy =
[-1.01257482e+02 -1.45147286e+01 -1.02463608e+01 -1.02448921e+01
 -1.01769403e+01 -1.01369360e+01 -1.01181679e+01 -1.01178483e+01
 -9.21686501e+00 -6.97154464e+00 -6.97153496e+00 -6.96981038e+00
 -1.06162601e+00 -8.16950599e-01 -8.06193778e-01 -7.31467637e-01
 -6.68988389e-01 -6.37752722e-01 -6.19812580e-01 -5.58016987e-01
 -5.12658075e-01 -5.06140922e-01 -4.99211499e-01 -4.61141366e-01
 -4.59396573e-01 -4.08866943e-01 -3.97920073e-01 -3.71415814e-01
 -3.66848109e-01 -2.96535211e-01 -2.80695227e-01 -1.68320648e-01
 -1.64494618e-01 -1.64243464e-01 -7.10337749e-02 -2.65226051e-02
  5.63217068e-02  1.03056931e-01  1.12206293e-01  1.25343404e-01
  1.26158539e-01  1.50192909e-01  1.58785474e-01  1.60463623e-01
  1.77444891e-01  1.79242751e-01  2.57578108e-01  2.73357501e-01
  3.01185386e-01  3.11369001e-01  4.07751396e-01  4.37479244e-01
  4.60376638e-01  4.70001517e-01  5.08389249e-01  5.34976941e-01
  5.38115623e-01  5.45695929e-01  5.61878241e-01  5.66789805e-01
  5.75766751e-01  5.93390698e-01  6.04700624e-01  6.18733115e-01
  6.26573155e-01  6.33169382e-01  6.54119277e-01  6.55766527e-01
  7.17680907e-01  7.23534579e-01  7.67164439e-01  7.88069672e-01
  8.00353745e-01  8.04320285e-01  8.47301148e-01  8.49238251e-01
  8.82758810e-01  8.88041397e-01  9.17794689e-01  9.44994825e-01
  9.60671595e-01  9.86472394e-01  1.00180979e+00  1.04042605e+00
  1.04059290e+00  1.05308446e+00  1.05431066e+00  1.07928137e+00
  1.08285203e+00  1.13444859e+00  1.16361089e+00  1.19879623e+00
  1.21652088e+00  1.24808036e+00  1.30630452e+00  1.35584118e+00
  1.42401711e+00  1.42815742e+00  1.45466834e+00  1.46644564e+00
  1.48919454e+00  1.49583451e+00  1.69153488e+00  1.80443885e+00
  1.81986255e+00  1.87220666e+00  1.88967209e+00  1.90840874e+00
  1.93514523e+00  1.97152465e+00  2.05721873e+00  2.10751921e+00
  2.12375100e+00  2.14301267e+00  2.14630966e+00  2.17748458e+00
  2.24533790e+00  2.29798955e+00  2.29818499e+00  2.31865550e+00
  2.38128164e+00  2.39349401e+00  2.54989975e+00  2.57124276e+00
  2.67329694e+00  2.67477266e+00  2.72299125e+00  2.75087078e+00
  2.78492479e+00  2.83084819e+00  3.03017521e+00  3.42524167e+00]
nelec by numeric integration = 68.00008962073323
    CPU time for vxc      6.01 sec, wall time      0.21 sec
E1 = -1775.3374947352156  Ecoul = 717.1919135908718  Exc = -70.34449313669107
cycle= 3 E= -748.017026657312  delta_E= -5.26  |g|= 0.493  |ddm|= 4.61
    CPU time for cycle= 3      6.53 sec, wall time      0.23 sec
  HOMO = -0.131467252277119  LUMO = -0.113617583034766
  mo_energy =
[-1.01260312e+02 -1.44494871e+01 -1.02943000e+01 -1.02932171e+01
 -1.02914152e+01 -1.02754628e+01 -1.02747480e+01 -1.02063934e+01
 -9.20550899e+00 -6.96123610e+00 -6.96123310e+00 -6.96052536e+00
 -1.06158170e+00 -8.99739227e-01 -8.48171955e-01 -7.56273953e-01
 -7.22567746e-01 -6.89718778e-01 -6.00258781e-01 -5.83077708e-01
 -5.70525538e-01 -5.43123271e-01 -5.09801915e-01 -5.09225845e-01
 -5.05864739e-01 -4.44438993e-01 -4.32027304e-01 -4.20713661e-01
 -4.09743497e-01 -3.55672287e-01 -3.39713772e-01 -1.35228655e-01
 -1.31950670e-01 -1.31467252e-01 -1.13617583e-01 -8.64662759e-02
  2.86175412e-02  6.23772844e-02  7.78203909e-02  8.68513574e-02
  1.07999560e-01  1.26128086e-01  1.37492075e-01  1.49026625e-01
  1.67056504e-01  1.85458656e-01  2.20623698e-01  2.38091154e-01
  2.49143491e-01  2.73462301e-01  3.75775980e-01  3.91853119e-01
  4.34011955e-01  4.62835934e-01  4.78227631e-01  4.86191009e-01
  5.07174195e-01  5.19289141e-01  5.22603670e-01  5.33121323e-01
  5.38237402e-01  5.61108618e-01  5.69374517e-01  5.71147150e-01
  5.98422663e-01  6.02674465e-01  6.07587495e-01  6.68502390e-01
  6.71928093e-01  7.23670565e-01  7.45934206e-01  7.60397211e-01
  7.67452272e-01  7.88009652e-01  8.05579394e-01  8.06875919e-01
  8.49642829e-01  8.56282161e-01  8.95145878e-01  9.08394450e-01
  9.19505831e-01  9.65469380e-01  9.91963859e-01  1.02610267e+00
  1.04208619e+00  1.07667991e+00  1.07674716e+00  1.08771100e+00
  1.09351288e+00  1.10224829e+00  1.14863709e+00  1.16060387e+00
  1.16369671e+00  1.25789356e+00  1.28565994e+00  1.33144169e+00
  1.36577399e+00  1.38783695e+00  1.39186740e+00  1.39839382e+00
  1.42663522e+00  1.44108985e+00  1.64889714e+00  1.74171152e+00
  1.79358272e+00  1.83901815e+00  1.85890286e+00  1.86627529e+00
  1.87345370e+00  1.93190412e+00  1.98511422e+00  2.05691865e+00
  2.07324673e+00  2.08603079e+00  2.09459076e+00  2.12568428e+00
  2.18516711e+00  2.22862644e+00  2.26165238e+00  2.28764493e+00
  2.35424989e+00  2.37571647e+00  2.48551403e+00  2.51392461e+00
  2.60509417e+00  2.61877165e+00  2.66062663e+00  2.68980225e+00
  2.71731802e+00  2.79687525e+00  2.98234357e+00  3.36697761e+00]
nelec by numeric integration = 68.0000866288375
    CPU time for vxc      5.85 sec, wall time      0.21 sec
E1 = -1776.443842641589  Ecoul = 718.3159598036905  Exc = -70.43132410597144
cycle= 4 E= -748.086159320147  delta_E= -0.0691  |g|= 0.133  |ddm|= 0.749
    CPU time for cycle= 4      6.40 sec, wall time      0.23 sec
  HOMO = -0.159134273135166  LUMO = -0.119933864222471
  mo_energy =
[-1.01370167e+02 -1.44905399e+01 -1.03155948e+01 -1.03154143e+01
 -1.02776657e+01 -1.02772885e+01 -1.02669009e+01 -1.02453804e+01
 -9.29138619e+00 -7.04972417e+00 -7.04891839e+00 -7.04883139e+00
 -1.08240306e+00 -8.99080592e-01 -8.59780262e-01 -7.69392646e-01
 -7.32270194e-01 -6.99376401e-01 -6.22255409e-01 -6.01142134e-01
 -5.77283768e-01 -5.49668867e-01 -5.27398668e-01 -5.18162577e-01
 -5.14904096e-01 -4.47636799e-01 -4.39466097e-01 -4.30786529e-01
 -4.27499640e-01 -3.62468593e-01 -3.48183583e-01 -1.63102723e-01
 -1.59187494e-01 -1.59134273e-01 -1.19933864e-01 -9.20966484e-02
  2.46357759e-02  5.79608328e-02  7.19720053e-02  8.16431093e-02
  1.02576556e-01  1.20996039e-01  1.30190239e-01  1.38276727e-01
  1.55972701e-01  1.73624743e-01  2.16038697e-01  2.28961780e-01
  2.43471578e-01  2.64722418e-01  3.68206625e-01  3.84489197e-01
  4.24754859e-01  4.56721407e-01  4.63248177e-01  4.82502871e-01
  4.96174885e-01  5.12472888e-01  5.19671979e-01  5.32401042e-01
  5.36200115e-01  5.47364909e-01  5.59544659e-01  5.62726731e-01
  5.86516536e-01  5.92211865e-01  5.94990044e-01  6.50002893e-01
  6.63839838e-01  7.08330405e-01  7.35842659e-01  7.52011961e-01
  7.71433531e-01  7.82199208e-01  7.87846086e-01  7.91427499e-01
  8.46763498e-01  8.54761580e-01  8.78062805e-01  8.99365177e-01
  9.12226638e-01  9.53289865e-01  9.77590255e-01  1.01693462e+00
  1.03589684e+00  1.04049082e+00  1.04070286e+00  1.05180447e+00
  1.06289475e+00  1.09800277e+00  1.12603482e+00  1.15115543e+00
  1.15519858e+00  1.23804809e+00  1.27208892e+00  1.32303476e+00
  1.35637745e+00  1.38047978e+00  1.38778500e+00  1.39978565e+00
  1.41602020e+00  1.42911018e+00  1.63978164e+00  1.73605860e+00
  1.78655970e+00  1.82333884e+00  1.85540006e+00  1.85540397e+00
  1.85830599e+00  1.91838902e+00  1.98073306e+00  2.04793463e+00
  2.06470181e+00  2.07460404e+00  2.08789326e+00  2.11566956e+00
  2.17847620e+00  2.21986531e+00  2.25483437e+00  2.26922109e+00
  2.33934830e+00  2.35708425e+00  2.47873360e+00  2.51049464e+00
  2.59792086e+00  2.60817904e+00  2.65237318e+00  2.68209693e+00
  2.71304621e+00  2.78248260e+00  2.96974026e+00  3.35789932e+00]
nelec by numeric integration = 68.00008574737335
    CPU time for vxc      5.91 sec, wall time      0.21 sec
E1 = -1777.9684171682673  Ecoul = 719.9514377107968  Exc = -70.54423227509047
cycle= 5 E= -748.088164108838  delta_E= -0.002  |g|= 0.0819  |ddm|= 0.272
    CPU time for cycle= 5      6.42 sec, wall time      0.23 sec
  HOMO = -0.141864941797707  LUMO = -0.120779738992654
  mo_energy =
[-1.01331547e+02 -1.44899320e+01 -1.03119283e+01 -1.03104010e+01
 -1.02842166e+01 -1.02740759e+01 -1.02737793e+01 -1.02319585e+01
 -9.25841934e+00 -7.01614428e+00 -7.01562503e+00 -7.01520797e+00
 -1.08082206e+00 -9.02128737e-01 -8.59235431e-01 -7.68377265e-01
 -7.33322767e-01 -7.00199222e-01 -6.09953320e-01 -5.95247954e-01
 -5.79172308e-01 -5.51703483e-01 -5.26399888e-01 -5.18645263e-01
 -5.16142723e-01 -4.50959008e-01 -4.41349903e-01 -4.30016402e-01
 -4.24107035e-01 -3.64702880e-01 -3.48513249e-01 -1.45775651e-01
 -1.42956733e-01 -1.41864942e-01 -1.20779739e-01 -9.23274071e-02
  2.27577072e-02  5.56889881e-02  7.05493968e-02  7.95165286e-02
  1.00930241e-01  1.18985190e-01  1.28807922e-01  1.40501115e-01
  1.57744237e-01  1.76648787e-01  2.13303892e-01  2.28435128e-01
  2.41759882e-01  2.64462266e-01  3.66838062e-01  3.84013325e-01
  4.24364279e-01  4.54482119e-01  4.69699592e-01  4.80631133e-01
  4.95659805e-01  5.11492304e-01  5.17851610e-01  5.30243667e-01
  5.32880472e-01  5.53806723e-01  5.62139993e-01  5.63776184e-01
  5.92118711e-01  5.96935126e-01  6.02269513e-01  6.58167087e-01
  6.63927542e-01  7.12389825e-01  7.36480723e-01  7.51436950e-01
  7.66563669e-01  7.81138419e-01  7.88729049e-01  7.98629541e-01
  8.44275221e-01  8.51511612e-01  8.81961103e-01  9.00340284e-01
  9.11226017e-01  9.53251622e-01  9.80091083e-01  1.01762245e+00
  1.03395836e+00  1.06234375e+00  1.06242731e+00  1.07229578e+00
  1.08066205e+00  1.09616352e+00  1.13478690e+00  1.15089983e+00
  1.15398065e+00  1.24559740e+00  1.27297461e+00  1.32144268e+00
  1.35624212e+00  1.37840567e+00  1.38486340e+00  1.39506523e+00
  1.41600494e+00  1.42875657e+00  1.63842324e+00  1.73499015e+00
  1.78548866e+00  1.82434436e+00  1.85439985e+00  1.85577622e+00
  1.85818899e+00  1.92036232e+00  1.97886533e+00  2.04760711e+00
  2.06380714e+00  2.07466071e+00  2.08668783e+00  2.11445508e+00
  2.17718276e+00  2.21929682e+00  2.25270471e+00  2.27283756e+00
  2.34151257e+00  2.35921005e+00  2.47786515e+00  2.50788427e+00
  2.59647139e+00  2.60700658e+00  2.65137293e+00  2.68077676e+00
  2.71090024e+00  2.78406143e+00  2.96978965e+00  3.35704567e+00]
nelec by numeric integration = 68.00008595065347
    CPU time for vxc      6.20 sec, wall time      0.22 sec
E1 = -1777.5140513491647  Ecoul = 719.4465892091799  Exc = -70.49409479002307
cycle= 6 E= -748.088509306284  delta_E= -0.000345  |g|= 0.0725  |ddm|= 0.426
    CPU time for cycle= 6      7.16 sec, wall time      0.26 sec
  HOMO = -0.144252442817416  LUMO = -0.117936788713015
  mo_energy =
[-1.01330480e+02 -1.44829089e+01 -1.03082517e+01 -1.03067496e+01
 -1.02760497e+01 -1.02720890e+01 -1.02715066e+01 -1.02289295e+01
 -9.25859313e+00 -7.01651049e+00 -7.01556456e+00 -7.01505322e+00
 -1.07693893e+00 -8.98537308e-01 -8.56266421e-01 -7.65459586e-01
 -7.30165428e-01 -6.97383438e-01 -6.09050812e-01 -5.95484420e-01
 -5.75753136e-01 -5.49513066e-01 -5.23278479e-01 -5.16290524e-01
 -5.12948959e-01 -4.48080617e-01 -4.38282098e-01 -4.27960509e-01
 -4.22799174e-01 -3.61529316e-01 -3.45953085e-01 -1.47728890e-01
 -1.44805473e-01 -1.44252443e-01 -1.17936789e-01 -8.95104943e-02
  2.46725012e-02  5.86454580e-02  7.20900145e-02  8.13288838e-02
  1.02911495e-01  1.20601369e-01  1.31040102e-01  1.41591364e-01
  1.58982944e-01  1.77258558e-01  2.16078208e-01  2.31021790e-01
  2.44193778e-01  2.66568599e-01  3.68967825e-01  3.86460285e-01
  4.26738553e-01  4.57359301e-01  4.70319118e-01  4.83016156e-01
  4.98432531e-01  5.13761261e-01  5.20438856e-01  5.32718780e-01
  5.35769751e-01  5.53892880e-01  5.63722408e-01  5.65525488e-01
  5.94629780e-01  5.96138709e-01  6.01074741e-01  6.58283186e-01
  6.65657581e-01  7.13539041e-01  7.38574456e-01  7.53362426e-01
  7.69598382e-01  7.82953421e-01  7.91527544e-01  7.98701963e-01
  8.46776513e-01  8.54099309e-01  8.83091682e-01  9.01860227e-01
  9.13349909e-01  9.55486776e-01  9.81201383e-01  1.01946420e+00
  1.03641720e+00  1.05976880e+00  1.05990523e+00  1.06990148e+00
  1.07939128e+00  1.09829698e+00  1.13529874e+00  1.15326855e+00
  1.15737278e+00  1.24575496e+00  1.27594643e+00  1.32421838e+00
  1.35916949e+00  1.38072060e+00  1.38848771e+00  1.39883156e+00
  1.41877593e+00  1.43140267e+00  1.64147364e+00  1.73815409e+00
  1.78831127e+00  1.82749249e+00  1.85754727e+00  1.85850807e+00
  1.86059756e+00  1.92270536e+00  1.98220357e+00  2.05049869e+00
  2.06714135e+00  2.07755634e+00  2.08982440e+00  2.11789049e+00
  2.18018752e+00  2.22217258e+00  2.25617600e+00  2.27466712e+00
  2.34400614e+00  2.36205968e+00  2.48070836e+00  2.51133458e+00
  2.59972416e+00  2.61036912e+00  2.65462077e+00  2.68419787e+00
  2.71447809e+00  2.78697189e+00  2.97312269e+00  3.36043173e+00]
nelec by numeric integration = 68.0000861938291
    CPU time for vxc      6.42 sec, wall time      0.23 sec
E1 = -1777.3821759389873  Ecoul = 719.3078415458533  Exc = -70.48933477499139
cycle= 7 E= -748.090621544402  delta_E= -0.00211  |g|= 0.0333  |ddm|= 0.0966
    CPU time for cycle= 7      7.23 sec, wall time      0.26 sec
  HOMO = -0.148843823607302  LUMO = -0.116535489826995
  mo_energy =
[-1.01336692e+02 -1.44816658e+01 -1.03051496e+01 -1.03039738e+01
 -1.02747790e+01 -1.02693938e+01 -1.02689827e+01 -1.02296588e+01
 -9.26466462e+00 -7.02273265e+00 -7.02157307e+00 -7.02106079e+00
 -1.07524525e+00 -8.96554601e-01 -8.53911521e-01 -7.64547187e-01
 -7.28055246e-01 -6.95437182e-01 -6.11158905e-01 -5.96550230e-01
 -5.73521143e-01 -5.47332163e-01 -5.21833015e-01 -5.14005201e-01
 -5.11913876e-01 -4.45882205e-01 -4.36413609e-01 -4.27150079e-01
 -4.22809002e-01 -3.60091738e-01 -3.43609226e-01 -1.52100836e-01
 -1.48962699e-01 -1.48843824e-01 -1.16535490e-01 -8.71965015e-02
  2.62122721e-02  6.06989547e-02  7.37075419e-02  8.26628537e-02
  1.04278508e-01  1.22293625e-01  1.32349976e-01  1.41634924e-01
  1.59333990e-01  1.76947040e-01  2.18017911e-01  2.32386256e-01
  2.46013937e-01  2.68004697e-01  3.70483497e-01  3.88281338e-01
  4.28499175e-01  4.59309287e-01  4.69414463e-01  4.84371408e-01
  5.00500777e-01  5.15823065e-01  5.22352764e-01  5.34118819e-01
  5.37868506e-01  5.52759952e-01  5.64302251e-01  5.66085082e-01
  5.93959206e-01  5.96450109e-01  5.98669954e-01  6.56738881e-01
  6.66789959e-01  7.13491326e-01  7.39951984e-01  7.55256144e-01
  7.71405251e-01  7.84710699e-01  7.92560814e-01  7.97350659e-01
  8.48390815e-01  8.55918424e-01  8.82839906e-01  9.02349516e-01
  9.14789483e-01  9.56991283e-01  9.81221938e-01  1.02087573e+00
  1.03801336e+00  1.05433027e+00  1.05450933e+00  1.06480185e+00
  1.07531072e+00  1.09987154e+00  1.13392850e+00  1.15482371e+00
  1.15958086e+00  1.24436370e+00  1.27748595e+00  1.32567423e+00
  1.36107610e+00  1.38263727e+00  1.39063483e+00  1.40108600e+00
  1.42123871e+00  1.43305728e+00  1.64354244e+00  1.74010975e+00
  1.78993002e+00  1.82866259e+00  1.85959068e+00  1.86043827e+00
  1.86159251e+00  1.92382955e+00  1.98436144e+00  2.05266219e+00
  2.06916017e+00  2.07974300e+00  2.09140969e+00  2.11993674e+00
  2.18171098e+00  2.22464049e+00  2.25797895e+00  2.27498382e+00
  2.34524424e+00  2.36319323e+00  2.48295547e+00  2.51323739e+00
  2.60186804e+00  2.61259402e+00  2.65692634e+00  2.68633613e+00
  2.71642349e+00  2.78828838e+00  2.97510124e+00  3.36258268e+00]
nelec by numeric integration = 68.00008619493315
    CPU time for vxc      6.02 sec, wall time      0.21 sec
E1 = -1777.404522239639  Ecoul = 719.3360960087506  Exc = -70.49589158352977
cycle= 8 E= -748.091270190695  delta_E= -0.000649  |g|= 0.00521  |ddm|=  0.1
    CPU time for cycle= 8      6.53 sec, wall time      0.23 sec
  HOMO = -0.149025058013273  LUMO = -0.115811544838932
  mo_energy =
[-1.01334821e+02 -1.44803549e+01 -1.03051314e+01 -1.03038787e+01
 -1.02727723e+01 -1.02691566e+01 -1.02686691e+01 -1.02290204e+01
 -9.26349421e+00 -7.02149731e+00 -7.02032929e+00 -7.01982268e+00
 -1.07461046e+00 -8.95754484e-01 -8.53478202e-01 -7.63974800e-01
 -7.27417003e-01 -6.94941951e-01 -6.11034284e-01 -5.96139951e-01
 -5.72870301e-01 -5.46807382e-01 -5.21306371e-01 -5.13608496e-01
 -5.11219656e-01 -4.45206705e-01 -4.35814012e-01 -4.26759313e-01
 -4.22616859e-01 -3.59388940e-01 -3.43204351e-01 -1.52239084e-01
 -1.49119017e-01 -1.49025058e-01 -1.15811545e-01 -8.67219509e-02
  2.66711800e-02  6.13295823e-02  7.40408732e-02  8.30849728e-02
  1.04730100e-01  1.22679572e-01  1.32872756e-01  1.41840830e-01
  1.59544915e-01  1.77003633e-01  2.18629823e-01  2.32913273e-01
  2.46538443e-01  2.68400606e-01  3.70938315e-01  3.88726094e-01
  4.28890417e-01  4.59911962e-01  4.69548480e-01  4.84918241e-01
  5.00973276e-01  5.16239473e-01  5.22887567e-01  5.34713689e-01
  5.38510973e-01  5.52903451e-01  5.64572531e-01  5.66470497e-01
  5.93919597e-01  5.96967241e-01  5.98703370e-01  6.56817263e-01
  6.67160860e-01  7.13681903e-01  7.40328725e-01  7.55611189e-01
  7.72160854e-01  7.85122909e-01  7.93068353e-01  7.97479325e-01
  8.48968233e-01  8.56544564e-01  8.83031698e-01  9.02665251e-01
  9.15228244e-01  9.57411699e-01  9.81419303e-01  1.02126670e+00
  1.03858587e+00  1.05428390e+00  1.05446330e+00  1.06479010e+00
  1.07533270e+00  1.10042781e+00  1.13417618e+00  1.15532556e+00
  1.16020011e+00  1.24447795e+00  1.27800633e+00  1.32626581e+00
  1.36162220e+00  1.38315833e+00  1.39141170e+00  1.40191796e+00
  1.42167389e+00  1.43358025e+00  1.64412789e+00  1.74072435e+00
  1.79049977e+00  1.82926783e+00  1.86025032e+00  1.86101889e+00
  1.86198269e+00  1.92427164e+00  1.98499445e+00  2.05317840e+00
  2.06977964e+00  2.08021108e+00  2.09206034e+00  2.12058131e+00
  2.18234800e+00  2.22512913e+00  2.25870632e+00  2.27529923e+00
  2.34565872e+00  2.36367872e+00  2.48347606e+00  2.51397807e+00
  2.60248498e+00  2.61320818e+00  2.65750461e+00  2.68697775e+00
  2.71717117e+00  2.78881851e+00  2.97567657e+00  3.36321311e+00]
nelec by numeric integration = 68.00008623162609
    CPU time for vxc      5.83 sec, wall time      0.21 sec
E1 = -1777.375490601707  Ecoul = 719.3047891091497  Exc = -70.49362354660079
cycle= 9 E= -748.091277415435  delta_E= -7.22e-06  |g|= 0.000605  |ddm|= 0.00656
    CPU time for cycle= 9      6.37 sec, wall time      0.23 sec
  HOMO = -0.149022973204487  LUMO = -0.115813876145489
  mo_energy =
[-1.01334894e+02 -1.44804248e+01 -1.03050167e+01 -1.03037815e+01
 -1.02727537e+01 -1.02693289e+01 -1.02688089e+01 -1.02290903e+01
 -9.26353713e+00 -7.02154178e+00 -7.02037568e+00 -7.01986897e+00
 -1.07460321e+00 -8.95793817e-01 -8.53475345e-01 -7.63987371e-01
 -7.27450433e-01 -6.94949276e-01 -6.11036623e-01 -5.96145440e-01
 -5.72895515e-01 -5.46857075e-01 -5.21302202e-01 -5.13617863e-01
 -5.11239292e-01 -4.45253861e-01 -4.35840493e-01 -4.26761610e-01
 -4.22599563e-01 -3.59410688e-01 -3.43211996e-01 -1.52234670e-01
 -1.49115773e-01 -1.49022973e-01 -1.15813876e-01 -8.67456309e-02
  2.66551124e-02  6.13013097e-02  7.40299419e-02  8.30798660e-02
  1.04721050e-01  1.22658109e-01  1.32854302e-01  1.41841087e-01
  1.59550548e-01  1.77023077e-01  2.18609822e-01  2.32899844e-01
  2.46512773e-01  2.68394943e-01  3.70925410e-01  3.88719103e-01
  4.28905791e-01  4.59890032e-01  4.69549862e-01  4.84898070e-01
  5.00988334e-01  5.16232011e-01  5.22869589e-01  5.34669371e-01
  5.38481895e-01  5.52898969e-01  5.64565186e-01  5.66458922e-01
  5.93921338e-01  5.96950312e-01  5.98701848e-01  6.56826759e-01
  6.67149501e-01  7.13694040e-01  7.40326021e-01  7.55610588e-01
  7.72112415e-01  7.85082760e-01  7.93067449e-01  7.97480975e-01
  8.48940277e-01  8.56506441e-01  8.83044384e-01  9.02660223e-01
  9.15227950e-01  9.57408890e-01  9.81439841e-01  1.02124686e+00
  1.03857462e+00  1.05428252e+00  1.05446182e+00  1.06479221e+00
  1.07533028e+00  1.10039430e+00  1.13417413e+00  1.15530310e+00
  1.16018756e+00  1.24449337e+00  1.27800351e+00  1.32625231e+00
  1.36159380e+00  1.38314609e+00  1.39137952e+00  1.40189252e+00
  1.42166922e+00  1.43357035e+00  1.64411234e+00  1.74070378e+00
  1.79048502e+00  1.82925075e+00  1.86021794e+00  1.86099791e+00
  1.86199300e+00  1.92425653e+00  1.98498302e+00  2.05316354e+00
  2.06976703e+00  2.08020583e+00  2.09203782e+00  2.12057396e+00
  2.18232714e+00  2.22510922e+00  2.25868207e+00  2.27530580e+00
  2.34566510e+00  2.36368118e+00  2.48346059e+00  2.51394941e+00
  2.60246450e+00  2.61319159e+00  2.65748736e+00  2.68696041e+00
  2.71713783e+00  2.78880211e+00  2.97566388e+00  3.36318996e+00]
nelec by numeric integration = 68.0000862244064
    CPU time for vxc      5.83 sec, wall time      0.21 sec
E1 = -1777.3762317521612  Ecoul = 719.3056644095763  Exc = -70.4937577639199
cycle= 10 E= -748.091277482781  delta_E= -6.73e-08  |g|= 0.000319  |ddm|= 0.000685
    CPU time for cycle= 10      6.34 sec, wall time      0.23 sec
  HOMO = -0.149069286110494  LUMO = -0.115817593832863
  mo_energy =
[-1.01335027e+02 -1.44803623e+01 -1.03050862e+01 -1.03038383e+01
 -1.02727838e+01 -1.02692679e+01 -1.02687701e+01 -1.02290946e+01
 -9.26364340e+00 -7.02165067e+00 -7.02048428e+00 -7.01997790e+00
 -1.07459884e+00 -8.95787138e-01 -8.53478075e-01 -7.63983185e-01
 -7.27445786e-01 -6.94950440e-01 -6.11075295e-01 -5.96164756e-01
 -5.72894391e-01 -5.46853473e-01 -5.21296378e-01 -5.13621028e-01
 -5.11235024e-01 -4.45250212e-01 -4.35839404e-01 -4.26757552e-01
 -4.22595962e-01 -3.59403999e-01 -3.43213401e-01 -1.52280327e-01
 -1.49158347e-01 -1.49069286e-01 -1.15817594e-01 -8.67469424e-02
  2.66565439e-02  6.13040952e-02  7.40312727e-02  8.30798706e-02
  1.04723288e-01  1.22660795e-01  1.32857458e-01  1.41843024e-01
  1.59552489e-01  1.77024519e-01  2.18612617e-01  2.32903878e-01
  2.46513586e-01  2.68395302e-01  3.70928146e-01  3.88722802e-01
  4.28900374e-01  4.59892015e-01  4.69535121e-01  4.84901952e-01
  5.00980842e-01  5.16232139e-01  5.22868592e-01  5.34668512e-01
  5.38481516e-01  5.52883374e-01  5.64558240e-01  5.66451945e-01
  5.93893763e-01  5.96952631e-01  5.98677460e-01  6.56808622e-01
  6.67149797e-01  7.13687822e-01  7.40322952e-01  7.55604246e-01
  7.72117165e-01  7.85086063e-01  7.93079259e-01  7.97462715e-01
  8.48943329e-01  8.56509778e-01  8.83045910e-01  9.02660129e-01
  9.15223959e-01  9.57410972e-01  9.81441181e-01  1.02124448e+00
  1.03857324e+00  1.05422309e+00  1.05440284e+00  1.06473717e+00
  1.07528193e+00  1.10039533e+00  1.13415176e+00  1.15530836e+00
  1.16018819e+00  1.24447959e+00  1.27800449e+00  1.32625617e+00
  1.36159906e+00  1.38314674e+00  1.39138353e+00  1.40189154e+00
  1.42166475e+00  1.43357452e+00  1.64411535e+00  1.74070514e+00
  1.79048860e+00  1.82925667e+00  1.86022230e+00  1.86099734e+00
  1.86199067e+00  1.92425964e+00  1.98498066e+00  2.05316397e+00
  2.06976797e+00  2.08020415e+00  2.09204287e+00  2.12057272e+00
  2.18232958e+00  2.22510881e+00  2.25868600e+00  2.27530828e+00
  2.34566087e+00  2.36368440e+00  2.48345983e+00  2.51395356e+00
  2.60246538e+00  2.61319233e+00  2.65748565e+00  2.68695984e+00
  2.71714195e+00  2.78880661e+00  2.97566388e+00  3.36319034e+00]
nelec by numeric integration = 68.00008622609269
    CPU time for vxc      5.85 sec, wall time      0.21 sec
E1 = -1777.3771546021817  Ecoul = 719.3066902832171  Exc = -70.4938608148973
cycle= 11 E= -748.091277510139  delta_E= -2.74e-08  |g|= 0.00017  |ddm|= 0.00108
    CPU time for cycle= 11      6.36 sec, wall time      0.23 sec
  HOMO = -0.149051625380767  LUMO = -0.115823700701159
  mo_energy =
[-1.01334990e+02 -1.44803908e+01 -1.03050796e+01 -1.03038411e+01
 -1.02727836e+01 -1.02692879e+01 -1.02687802e+01 -1.02290931e+01
 -9.26361075e+00 -7.02161766e+00 -7.02045136e+00 -7.01994480e+00
 -1.07461159e+00 -8.95795787e-01 -8.53486310e-01 -7.63989266e-01
 -7.27454616e-01 -6.94956195e-01 -6.11063121e-01 -5.96161959e-01
 -5.72902102e-01 -5.46859053e-01 -5.21306135e-01 -5.13627868e-01
 -5.11241337e-01 -4.45257194e-01 -4.35845374e-01 -4.26762880e-01
 -4.22599550e-01 -3.59411977e-01 -3.43220594e-01 -1.52263899e-01
 -1.49141745e-01 -1.49051625e-01 -1.15823701e-01 -8.67543472e-02
  2.66524667e-02  6.12974218e-02  7.40268204e-02  8.30765153e-02
  1.04718971e-01  1.22656615e-01  1.32853395e-01  1.41840058e-01
  1.59549059e-01  1.77021945e-01  2.18606430e-01  2.32897077e-01
  2.46508517e-01  2.68389846e-01  3.70923278e-01  3.88714425e-01
  4.28895202e-01  4.59885413e-01  4.69537986e-01  4.84896692e-01
  5.00973941e-01  5.16225879e-01  5.22862742e-01  5.34666127e-01
  5.38476125e-01  5.52886400e-01  5.64556854e-01  5.66450901e-01
  5.93901692e-01  5.96946817e-01  5.98685471e-01  6.56812578e-01
  6.67146067e-01  7.13686603e-01  7.40318276e-01  7.55599962e-01
  7.72112384e-01  7.85081665e-01  7.93069569e-01  7.97467140e-01
  8.48938376e-01  8.56504679e-01  8.83042788e-01  9.02657539e-01
  9.15220416e-01  9.57404918e-01  9.81438198e-01  1.02124072e+00
  1.03856810e+00  1.05424495e+00  1.05442461e+00  1.06475736e+00
  1.07529886e+00  1.10039124e+00  1.13415685e+00  1.15530126e+00
  1.16017975e+00  1.24448230e+00  1.27799640e+00  1.32624953e+00
  1.36159058e+00  1.38314047e+00  1.39137474e+00  1.40188504e+00
  1.42165679e+00  1.43356648e+00  1.64410691e+00  1.74069758e+00
  1.79048168e+00  1.82924854e+00  1.86021407e+00  1.86099118e+00
  1.86198579e+00  1.92425374e+00  1.98497336e+00  2.05315552e+00
  2.06975924e+00  2.08019701e+00  2.09203498e+00  2.12056490e+00
  2.18232368e+00  2.22510131e+00  2.25867835e+00  2.27530459e+00
  2.34565553e+00  2.36367629e+00  2.48345217e+00  2.51394565e+00
  2.60245729e+00  2.61318448e+00  2.65747823e+00  2.68695216e+00
  2.71713392e+00  2.78879861e+00  2.97565581e+00  3.36318259e+00]
nelec by numeric integration = 68.00008622553545
    CPU time for vxc      5.86 sec, wall time      0.21 sec
E1 = -1777.377094162293  Ecoul = 719.3066081555094  Exc = -70.49383913832669
cycle= 12 E= -748.091277521387  delta_E= -1.12e-08  |g|= 3.15e-05  |ddm|= 0.000312
    CPU time for cycle= 12      6.38 sec, wall time      0.23 sec
  HOMO = -0.149046321782794  LUMO = -0.115824951883809
  mo_energy =
[-1.01334982e+02 -1.44803950e+01 -1.03050840e+01 -1.03038369e+01
 -1.02727854e+01 -1.02692862e+01 -1.02687849e+01 -1.02290979e+01
 -9.26360329e+00 -7.02161005e+00 -7.02044398e+00 -7.01993736e+00
 -1.07461385e+00 -8.95797681e-01 -8.53488010e-01 -7.63991758e-01
 -7.27456542e-01 -6.94958163e-01 -6.11059635e-01 -5.96161484e-01
 -5.72903995e-01 -5.46861009e-01 -5.21308417e-01 -5.13629441e-01
 -5.11243562e-01 -4.45259041e-01 -4.35847373e-01 -4.26764941e-01
 -4.22601923e-01 -3.59413973e-01 -3.43222176e-01 -1.52258997e-01
 -1.49136953e-01 -1.49046322e-01 -1.15824952e-01 -8.67560783e-02
  2.66508859e-02  6.12955838e-02  7.40253609e-02  8.30751858e-02
  1.04717297e-01  1.22655125e-01  1.32851684e-01  1.41838820e-01
  1.59547667e-01  1.77020960e-01  2.18604764e-01  2.32895392e-01
  2.46506283e-01  2.68388399e-01  3.70921467e-01  3.88712797e-01
  4.28893396e-01  4.59883642e-01  4.69538475e-01  4.84894973e-01
  5.00972454e-01  5.16224508e-01  5.22861456e-01  5.34664657e-01
  5.38474667e-01  5.52887553e-01  5.64556620e-01  5.66450866e-01
  5.93904029e-01  5.96945428e-01  5.98687925e-01  6.56813786e-01
  6.67144228e-01  7.13685618e-01  7.40316804e-01  7.55598727e-01
  7.72111020e-01  7.85080017e-01  7.93067417e-01  7.97468394e-01
  8.48936612e-01  8.56503088e-01  8.83041321e-01  9.02656688e-01
  9.15218843e-01  9.57403021e-01  9.81436770e-01  1.02123961e+00
  1.03856664e+00  1.05425136e+00  1.05443098e+00  1.06476326e+00
  1.07530357e+00  1.10038978e+00  1.13415808e+00  1.15529923e+00
  1.16017780e+00  1.24448298e+00  1.27799412e+00  1.32624747e+00
  1.36158842e+00  1.38313863e+00  1.39137285e+00  1.40188328e+00
  1.42165523e+00  1.43356446e+00  1.64410486e+00  1.74069575e+00
  1.79047957e+00  1.82924598e+00  1.86021286e+00  1.86098882e+00
  1.86198318e+00  1.92425137e+00  1.98497169e+00  2.05315385e+00
  2.06975759e+00  2.08019501e+00  2.09203318e+00  2.12056311e+00
  2.18232108e+00  2.22509958e+00  2.25867609e+00  2.27530190e+00
  2.34565368e+00  2.36367384e+00  2.48345044e+00  2.51394381e+00
  2.60245547e+00  2.61318239e+00  2.65747649e+00  2.68695039e+00
  2.71713188e+00  2.78879638e+00  2.97565385e+00  3.36318065e+00]
nelec by numeric integration = 68.00008622549798
    CPU time for vxc      5.90 sec, wall time      0.21 sec
E1 = -1777.3770625791012  Ecoul = 719.306569948325  Exc = -70.49383251479819
cycle= 13 E= -748.091277521851  delta_E= -4.64e-10  |g|= 1.32e-05  |ddm|= 0.000107
    CPU time for cycle= 13      6.44 sec, wall time      0.23 sec
  HOMO = -0.149049550350617  LUMO = -0.115824121559549
  mo_energy =
[-1.01334991e+02 -1.44803923e+01 -1.03050747e+01 -1.03038411e+01
 -1.02727853e+01 -1.02692933e+01 -1.02687807e+01 -1.02290943e+01
 -9.26361058e+00 -7.02161749e+00 -7.02045140e+00 -7.01994475e+00
 -1.07461176e+00 -8.95797315e-01 -8.53486878e-01 -7.63990349e-01
 -7.27455643e-01 -6.94957276e-01 -6.11061976e-01 -5.96162027e-01
 -5.72903234e-01 -5.46860542e-01 -5.21306770e-01 -5.13628588e-01
 -5.11242591e-01 -4.45258678e-01 -4.35846710e-01 -4.26764097e-01
 -4.22600393e-01 -3.59413277e-01 -3.43221391e-01 -1.52262097e-01
 -1.49140012e-01 -1.49049550e-01 -1.15824122e-01 -8.67554547e-02
  2.66515212e-02  6.12962315e-02  7.40259455e-02  8.30757191e-02
  1.04718059e-01  1.22655496e-01  1.32852276e-01  1.41839581e-01
  1.59548535e-01  1.77021505e-01  2.18605117e-01  2.32895971e-01
  2.46507746e-01  2.68389043e-01  3.70922224e-01  3.88713543e-01
  4.28894859e-01  4.59884195e-01  4.69538415e-01  4.84895440e-01
  5.00973842e-01  5.16224910e-01  5.22861599e-01  5.34665106e-01
  5.38474652e-01  5.52886769e-01  5.64556365e-01  5.66450313e-01
  5.93902826e-01  5.96945575e-01  5.98686510e-01  6.56813220e-01
  6.67145386e-01  7.13686489e-01  7.40317947e-01  7.55599619e-01
  7.72110377e-01  7.85080574e-01  7.93068778e-01  7.97467537e-01
  8.48937175e-01  8.56503195e-01  8.83042174e-01  9.02656590e-01
  9.15219698e-01  9.57404154e-01  9.81437551e-01  1.02123978e+00
  1.03856716e+00  1.05424723e+00  1.05442687e+00  1.06475940e+00
  1.07530025e+00  1.10038991e+00  1.13415722e+00  1.15530011e+00
  1.16017879e+00  1.24448240e+00  1.27799566e+00  1.32624851e+00
  1.36158926e+00  1.38313953e+00  1.39137335e+00  1.40188362e+00
  1.42165616e+00  1.43356564e+00  1.64410581e+00  1.74069651e+00
  1.79048066e+00  1.82924754e+00  1.86021238e+00  1.86099046e+00
  1.86198524e+00  1.92425270e+00  1.98497246e+00  2.05315453e+00
  2.06975833e+00  2.08019630e+00  2.09203339e+00  2.12056409e+00
  2.18232258e+00  2.22510026e+00  2.25867698e+00  2.27530372e+00
  2.34565504e+00  2.36367542e+00  2.48345140e+00  2.51394420e+00
  2.60245627e+00  2.61318342e+00  2.65747739e+00  2.68695124e+00
  2.71713262e+00  2.78879774e+00  2.97565506e+00  3.36318163e+00]
nelec by numeric integration = 68.00008622545701
    CPU time for vxc      5.91 sec, wall time      0.21 sec
E1 = -1777.3770857611664  Ecoul = 719.3065992227224  Exc = -70.49383860685997
Extra cycle  E= -748.091277521581  delta_E= 2.71e-10  |g|= 2.95e-05  |ddm|= 7.53e-05
    CPU time for scf_cycle    108.69 sec, wall time      3.98 sec
    CPU time for SCF    108.70 sec, wall time      3.98 sec
converged SCF energy = -748.091277521581
Converting <class 'pyscf.dft.rks.RKS'> to RHF


******** <class 'pyscf.tdscf.rks.TDA'> for <class 'pyscf.dft.rks.RKS'> ********
nstates = 10 singlet
wfnsym = None
conv_tol = 1e-09
eigh lindep = 1e-12
eigh level_shift = 0
eigh max_space = 50
eigh max_cycle = 100
chkfile = /scratch/global/yangjunjie/tmpppnhf_hx
max_memory 127949 MB (current use 601 MB)


davidson 0 10  |r|= 0.116  e= [0.01199749 0.01428663 0.04417775 0.04443083 0.04641255 0.06940232
 0.15575172 0.15682531 0.16547855 0.19227859]  max|de|= 0.192  lindep=    1
Old state -> New state
    3     ->     2 
    2     ->     3 
davidson 1 20  |r|= 0.0192  e= [0.0119183  0.01404978 0.04345209 0.04416813 0.04637311 0.05454743
 0.15520131 0.15621163 0.16289057 0.19220103]  max|de|= -0.0149  lindep= 0.833
davidson 2 30  |r|= 0.0106  e= [0.01191815 0.01404466 0.04343503 0.04416792 0.04637264 0.05412879
 0.15504724 0.15607161 0.16247967 0.19219159]  max|de|= -0.000419  lindep= 0.901
root 0 converged  |r|= 2.24e-06  e= 0.01191815181705037  max|de|= -5.77e-10
davidson 3 40  |r|= 0.00355  e= [0.01191815 0.01404463 0.04343338 0.04416791 0.04637263 0.05409597
 0.15502976 0.15605621 0.16231639 0.19219113]  max|de|= -0.000163  lindep= 0.852
root 1 converged  |r|= 1.34e-06  e= 0.014044625056650615  max|de|= -1.38e-10
root 3 converged  |r|= 7.49e-07  e= 0.04416791182123753  max|de|= -2.02e-11
root 4 converged  |r|= 8.21e-07  e= 0.04637262687261654  max|de|= -1.38e-10
davidson 4 49  |r|= 0.00167  e= [0.01191815 0.01404463 0.04343325 0.04416791 0.04637263 0.05409509
 0.1550282  0.15605311 0.16229464 0.19219107]  max|de|= -2.17e-05  lindep= 0.826
davidson 5 55  |r|= 0.000808  e= [0.01191815 0.01404463 0.04343325 0.04416791 0.04637263 0.05409507
 0.15502798 0.15605254 0.16229078 0.19219103]  max|de|= -3.86e-06  lindep= 0.827
root 2 converged  |r|= 7.95e-07  e= 0.043433251929605426  max|de|= -3.25e-11
root 5 converged  |r|= 5.14e-06  e= 0.0540950648842927  max|de|= -7.37e-10
davidson 6 61  |r|= 0.000407  e= [0.01191815 0.01404463 0.04343325 0.04416791 0.04637263 0.05409506
 0.15502796 0.15605247 0.16228971 0.19219097]  max|de|= -1.07e-06  lindep= 0.683
davidson 7 65  |r|= 0.000276  e= [0.01191815 0.01404463 0.04343325 0.04416791 0.04637263 0.05409506
 0.15502796 0.15605246 0.16228936 0.19219091]  max|de|= -3.42e-07  lindep= 0.793
root 6 converged  |r|= 5.48e-06  e= 0.1550279566522048  max|de|= -4.06e-10
davidson 8 69  |r|= 8.92e-05  e= [0.01191815 0.01404463 0.04343325 0.04416791 0.04637263 0.05409506
 0.15502796 0.15605246 0.16228928 0.1921909 ]  max|de|= -8.59e-08  lindep= 0.828
root 7 converged  |r|= 1.62e-05  e= 0.1560524555547064  max|de|= 1.11e-16
davidson 9 10  |r|= 8.92e-05  e= [0.01191815 0.01404463 0.04343325 0.04416791 0.04637263 0.05409506
 0.15502796 0.15605246 0.16228928 0.1921909 ]  max|de|= 5e-16  lindep=    1
davidson 10 12  |r|= 4.23e-05  e= [0.01191815 0.01404463 0.04343325 0.04416791 0.04637263 0.05409506
 0.15502796 0.15605246 0.16228927 0.1921909 ]  max|de|= -8.88e-09  lindep= 0.726
root 9 converged  |r|= 8.84e-06  e= 0.19219090210940754  max|de|= -3.63e-10
davidson 11 14  |r|= 1.62e-05  e= [0.01191815 0.01404463 0.04343325 0.04416791 0.04637263 0.05409506
 0.15502796 0.15605246 0.16228927 0.1921909 ]  max|de|= -2.19e-09  lindep= 0.895
root 8 converged  |r|= 1.12e-05  e= 0.1622892661399965  max|de|= -5.42e-10
converged 12 15  |r|= 1.61e-05  e= [0.01191815 0.01404463 0.04343325 0.04416791 0.04637263 0.05409506
 0.15502796 0.15605246 0.16228927 0.1921909 ]  max|de|= -5.42e-10
    CPU time for TDA    237.76 sec, wall time      8.67 sec
Excited State energies (eV)
[0.32430943 0.38217371 1.18187898 1.2018701  1.26186345 1.47200169
 4.21852557 4.24640361 4.41611587 5.22978083]
Converting <class 'pyscf.dft.rks.RKS'> to RHF


******** <class 'pyscf.tdscf.rks.TDDFT'> for <class 'pyscf.dft.rks.RKS'> ********
nstates = 10 singlet
wfnsym = None
conv_tol = 1e-09
eigh lindep = 1e-12
eigh level_shift = 0
eigh max_space = 50
eigh max_cycle = 100
chkfile = /scratch/global/yangjunjie/tmpppnhf_hx
max_memory 127949 MB (current use 631 MB)


davidson 0 10  |r|= 0.173  e= [0.01199749 0.01428663 0.04417775 0.04443083 0.04641255 0.06940232
 0.15575172 0.15682531 0.16547855 0.19227859]  max|de|= 0.192  lindep=    1
Old state -> New state
    3     ->     0 
    0     ->     1 
    1     ->     2 
    1     ->     3 
    5     ->     4 
    3     ->     5 
    2     ->     6 
    4     ->     7 
    5     ->     8 
    6     ->     9 
davidson 1 20  |r|= 1.03  e= [0.00212985 0.01161561 0.01468054 0.01689313 0.03336684 0.04379025
 0.04416434 0.04636264 0.09279528 0.15416353]  max|de|= -0.0423  lindep= 0.096
Old state -> New state
    3     ->     0 
    1     ->     3 
    5     ->     7 
    7     ->     8 
davidson 2 30  |r|=    1  e= [0.00903245 0.0118376  0.0138125  0.02253505 0.03398214 0.04120353
 0.04416629 0.04486488 0.04636611 0.15496028]  max|de|= 0.0109  lindep= 0.0916
Old state -> New state
    1     ->     0 
    2     ->     1 
    4     ->     2 
    0     ->     3 
    7     ->     4 
    6     ->     5 
    8     ->     6 
    5     ->     7 
    7     ->     8 
davidson 3 40  |r|= 1.04  e= [0.01172705 0.01379923 0.03403957 0.03501395 0.04322928 0.04416668
 0.04636745 0.04654234 0.10345274 0.15499412]  max|de|= 0.0586  lindep= 0.153
Old state -> New state
    2     ->     3 
    3     ->     7 
    2     ->     8 
    3     ->     9 
davidson 4 50  |r|= 1.23  e= [0.01172678 0.01379569 0.03263348 0.03498509 0.04312507 0.04416666
 0.04636722 0.05342643 0.09026015 0.13186158]  max|de|= 0.0968  lindep= 0.0839
Old state -> New state
    3     ->     2 
    4     ->     3 
    5     ->     4 
    6     ->     5 
    4     ->     6 
    9     ->     7 
    3     ->     8 
davidson 5 60  |r|= 1.26  e= [0.01172685 0.01379559 0.03390996 0.04313129 0.04416665 0.04636727
 0.06272731 0.10761288 0.14416988 0.15499361]  max|de|= 0.109  lindep= 0.193
Old state -> New state
    5     ->     3 
    3     ->     4 
    4     ->     5 
    5     ->     6 
    8     ->     7 
    7     ->     8 
root 0 converged  |r|= 4.01e-07  e= 0.011726847746428216  max|de|= -2.13e-10
root 5 converged  |r|= 2.41e-06  e= 0.044166651964138486  max|de|= 5.25e-10
davidson 6 70  |r|= 1.42  e= [0.01172685 0.01379561 0.03393401 0.03436138 0.04312358 0.04416665
 0.04636727 0.09787632 0.12165699 0.15499378]  max|de|= -0.0463  lindep= 0.0626
Old state -> New state
    4     ->     3 
    5     ->     4 
    6     ->     5 
    3     ->     6 
    2     ->     7 
    9     ->     8 
    7     ->     9 
root 1 converged  |r|= 5.34e-07  e= 0.013795614591481927  max|de|= 5.08e-10
davidson 7 77  |r|= 1.23  e= [0.01172685 0.01379561 0.03394026 0.04312314 0.04416665 0.04636727
 0.05560738 0.10835819 0.15498685 0.15603808]  max|de|= 0.0744  lindep= 0.101
root 4 converged  |r|= 3.76e-07  e= 0.044166653131943456  max|de|= -1.8e-16
root 5 converged  |r|= 6.1e-06  e= 0.04636726814343564  max|de|= 6.94e-17
davidson 8 10  |r|= 1.23  e= [0.01172685 0.01379561 0.03394026 0.04312314 0.04416665 0.04636727
 0.05560738 0.10835819 0.15498685 0.15603808]  max|de|= -6.11e-16  lindep= 0.215
Old state -> New state
    2     ->     3 
    3     ->     4 
    4     ->     5 
    5     ->     6 
    2     ->     7 
davidson 9 16  |r|= 1.42  e= [0.01172685 0.01379561 0.03396796 0.0416204  0.04313021 0.04416665
 0.04636727 0.10650046 0.15499025 0.15606261]  max|de|= 0.0726  lindep= 0.219
Old state -> New state
    4     ->     3 
    5     ->     4 
    6     ->     5 
    2     ->     6 
    8     ->     7 
    9     ->     8 
    7     ->     9 
root 5 converged  |r|= 4.39e-07  e= 0.04636727048556725  max|de|= -6.74e-11
davidson 10 22  |r|= 0.727  e= [0.01172685 0.01379561 0.03393019 0.04312266 0.04416665 0.04636727
 0.05370628 0.15498821 0.15606158 0.24357628]  max|de|= 0.137  lindep= 0.271
Old state -> New state
    2     ->     3 
    3     ->     4 
    4     ->     5 
    2     ->     6 
    5     ->     7 
    2     ->     8 
    7     ->     9 
davidson 11 28  |r|= 0.944  e= [0.01172685 0.01379561 0.03390855 0.0417721  0.04312938 0.04416665
 0.0463138  0.04636722 0.0853371  0.15498788]  max|de|= 0.0514  lindep= 0.12
Old state -> New state
    2     ->     0 
    0     ->     1 
    1     ->     2 
    2     ->     3 
    2     ->     4 
    4     ->     5 
    5     ->     6 
    2     ->     8 
    4     ->     9 
davidson 12 35  |r|= 1.03  e= [0.00614658 0.01172685 0.01379561 0.03241131 0.03394487 0.04312286
 0.04416665 0.04636727 0.06538341 0.10155779]  max|de|= 0.0584  lindep= 0.171
Old state -> New state
    4     ->     3 
    5     ->     4 
    6     ->     5 
    7     ->     6 
    8     ->     7 
    9     ->     8 
root 6 converged  |r|= 1.26e-07  e= 0.04636727029063817  max|de|= 5.72e-11
davidson 13 41  |r|= 0.98  e= [0.00755928 0.01172685 0.01379561 0.03394016 0.04312276 0.04416665
 0.04636727 0.14188944 0.15498946 0.156027  ]  max|de|= 0.0765  lindep= 0.13
Old state -> New state
    3     ->     7 
    3     ->     8 
    8     ->     9 
davidson 14 47  |r|= 0.976  e= [0.00961342 0.01172685 0.01379562 0.03394037 0.04312278 0.04416665
 0.04636727 0.05456497 0.08003086 0.154989  ]  max|de|= 0.0461  lindep= 0.0544
Old state -> New state
    8     ->     7 
    9     ->     8 
    8     ->     9 
davidson 15 54  |r|= 0.988  e= [0.01012055 0.01172685 0.01379561 0.03394018 0.04312275 0.04416665
 0.04636727 0.13286895 0.15498881 0.15602926]  max|de|= 0.076  lindep= 0.0364
Old state -> New state
    1     ->     0 
    2     ->     1 
    3     ->     2 
    0     ->     7 
root 1 converged  |r|= 1.47e-07  e= 0.01379561451242473  max|de|= 5.38e-10
davidson 16 60  |r|= 1.04  e= [0.01172685 0.01379561 0.03394017 0.03714173 0.04312277 0.04416665
 0.04636727 0.15216288 0.15498648 0.15602964]  max|de|= 0.142  lindep= 0.118
Old state -> New state
    4     ->     3 
    5     ->     4 
    6     ->     5 
    8     ->     6 
    8     ->     7 
    9     ->     8 
    7     ->     9 
root 2 converged  |r|= 1.97e-07  e= 0.03394017254639543  max|de|= -3.34e-11
davidson 17 64  |r|=  0.7  e= [0.01172685 0.01379561 0.03394017 0.04312277 0.04416665 0.04636727
 0.15347335 0.15498508 0.15603294 0.18864386]  max|de|= 0.0365  lindep= 0.356
Old state -> New state
    9     ->     6 
root 3 converged  |r|= 2.3e-07  e= 0.043122768865437006  max|de|= 3.43e-10
davidson 18 68  |r|= 0.929  e= [0.01172685 0.01379561 0.03394018 0.04312277 0.04416665 0.04636727
 0.13817882 0.15498894 0.15603028 0.17526355]  max|de|= -0.0505  lindep= 0.283
Old state -> New state
    2     ->     6 
    6     ->     9 
davidson 19 72  |r|= 0.824  e= [0.01172685 0.01379561 0.03394017 0.04312277 0.04416665 0.04636727
 0.10556133 0.1549887  0.15603005 0.16218143]  max|de|= 0.0716  lindep= 0.248
Old state -> New state
    2     ->     6 
davidson 20 76  |r|= 1.13  e= [0.01172685 0.01379561 0.03394017 0.04312277 0.04416665 0.04636727
 0.05897319 0.15498876 0.15603004 0.16197833]  max|de|= 0.025  lindep= 0.206
Old state -> New state
    7     ->     6 
    8     ->     7 
    9     ->     8 
    6     ->     9 
root 2 converged  |r|= 6.05e-08  e= 0.033940170648736244  max|de|= 4.17e-10
davidson 21 80  |r|= 0.305  e= [0.01172685 0.01379561 0.03394017 0.04312277 0.04416665 0.04636727
 0.15498878 0.15603006 0.16125116 0.19989358]  max|de|= 0.141  lindep= 0.553
root 6 converged  |r|= 3.06e-05  e= 0.15498877759054489  max|de|= 2.78e-17
davidson 22 10  |r|= 0.305  e= [0.01172685 0.01379561 0.03394017 0.04312277 0.04416665 0.04636727
 0.15498878 0.15603006 0.16125116 0.19989358]  max|de|= 7.19e-15  lindep= 0.957
Old state -> New state
    2     ->     3 
    3     ->     4 
    4     ->     5 
    5     ->     6 
    2     ->     7 
    6     ->     8 
    7     ->     9 
davidson 23 13  |r|= 1.25  e= [0.01172685 0.01379561 0.03394019 0.03408566 0.04312277 0.04416665
 0.04636727 0.10688525 0.15498875 0.15603011]  max|de|= 0.0729  lindep= 0.374
Old state -> New state
    4     ->     3 
    2     ->     7 
    3     ->     8 
    3     ->     9 
davidson 24 18  |r|= 1.07  e= [0.01172685 0.01379561 0.03394017 0.04151268 0.04312277 0.04416665
 0.04636727 0.04934447 0.11344528 0.14140906]  max|de|= 0.107  lindep= 0.333
Old state -> New state
    4     ->     3 
    5     ->     4 
    6     ->     5 
    2     ->     6 
    9     ->     8 
    8     ->     9 
root 2 converged  |r|= 2.06e-08  e= 0.03394017059428207  max|de|= 3.33e-10
davidson 25 22  |r|= 0.837  e= [0.01172685 0.01379561 0.03394017 0.04312277 0.04416665 0.04636727
 0.07136191 0.1379663  0.15498871 0.15603006]  max|de|= 0.0886  lindep= 0.256
Old state -> New state
    8     ->     6 
    9     ->     7 
    7     ->     8 
    6     ->     9 
davidson 26 26  |r|= 0.371  e= [0.01172685 0.01379561 0.03394017 0.04312277 0.04416665 0.04636727
 0.15498873 0.15603005 0.16120908 0.19839278]  max|de|= 0.127  lindep= 0.485
Old state -> New state
    1     ->     2 
    2     ->     3 
    3     ->     4 
    4     ->     5 
    5     ->     6 
    2     ->     7 
    6     ->     8 
    7     ->     9 
root 8 converged  |r|= 7.85e-06  e= 0.15498872968244629  max|de|= 9.33e-11
davidson 27 30  |r|= 1.09  e= [0.01172685 0.01309493 0.01379562 0.03394017 0.04312277 0.04416665
 0.04636727 0.11353833 0.15498873 0.15603002]  max|de|= 0.0796  lindep= 0.21
Old state -> New state
    0     ->     1 
    3     ->     4 
    4     ->     5 
    5     ->     6 
    6     ->     7 
    7     ->     8 
    8     ->     9 
davidson 28 33  |r|= 1.03  e= [0.0116244  0.01172685 0.01379561 0.02503432 0.03394017 0.04312277
 0.04416665 0.04636727 0.08567918 0.15498873]  max|de|= -0.0279  lindep= 0.255
Old state -> New state
    1     ->     0 
    2     ->     1 
    4     ->     2 
    5     ->     3 
    6     ->     4 
    7     ->     5 
    9     ->     6 
    8     ->     7 
    4     ->     8 
    8     ->     9 
root 1 converged  |r|= 5.25e-08  e= 0.013795614340884544  max|de|= 1.69e-10
davidson 29 38  |r|= 0.672  e= [0.01172685 0.01379561 0.03394017 0.04312277 0.04416665 0.04636727
 0.15498911 0.15602992 0.16115112 0.1946914 ]  max|de|= 0.127  lindep= 0.373
Old state -> New state
    2     ->     3 
    3     ->     4 
    4     ->     5 
    5     ->     6 
    6     ->     7 
    7     ->     8 
    8     ->     9 
root 0 converged  |r|= 8.02e-08  e= 0.011726847865356332  max|de|= -5.97e-11
root 3 converged  |r|= 8.21e-08  e= 0.03394017048886258  max|de|= 5.92e-10
davidson 30 42  |r|=  0.6  e= [0.01172685 0.01379561 0.02842451 0.03394017 0.04312277 0.04416665
 0.04636727 0.15498873 0.15603002 0.16103377]  max|de|= -0.00552  lindep= 0.12
Old state -> New state
    3     ->     2 
    4     ->     5 
    5     ->     6 
    6     ->     7 
    3     ->     8 
    7     ->     9 
root 9 converged  |r|= 3.09e-06  e= 0.1549887305167938  max|de|= -3.59e-10
davidson 31 46  |r|= 0.739  e= [0.01172685 0.01379561 0.02117679 0.03394017 0.04192974 0.04312277
 0.04416665 0.04636727 0.09983285 0.15498873]  max|de|= 0.0659  lindep= 0.0488
Old state -> New state
    2     ->     1 
    1     ->     2 
    5     ->     4 
    6     ->     5 
    7     ->     6 
    3     ->     7 
    9     ->     8 
    8     ->     9 
davidson 32 49  |r|= 0.965  e= [0.01172685 0.01342051 0.01379561 0.03394017 0.04312277 0.04416665
 0.04636727 0.10298179 0.15498873 0.15603002]  max|de|= 0.069  lindep= 0.0659
Old state -> New state
    2     ->     1 
    3     ->     2 
    4     ->     3 
    5     ->     4 
    6     ->     5 
    4     ->     6 
    8     ->     7 
    9     ->     8 
    3     ->     9 
davidson 33 53  |r|= 0.471  e= [0.01172685 0.01379561 0.03394017 0.04312277 0.04416665 0.04636727
 0.0477939  0.15498873 0.15603002 0.16099954]  max|de|= 0.127  lindep= 0.0977
Old state -> New state
    2     ->     0 
    0     ->     1 
    1     ->     2 
    2     ->     3 
    2     ->     4 
    3     ->     5 
    4     ->     6 
    5     ->     7 
    7     ->     8 
    8     ->     9 
root 9 converged  |r|= 2.06e-06  e= 0.15603001955411921  max|de|= -8.04e-10
davidson 34 57  |r|= 0.861  e= [0.00412247 0.01172685 0.01379561 0.03394017 0.03817394 0.04312277
 0.04416665 0.04636727 0.15498873 0.15603002]  max|de|= -0.0298  lindep= 0.0675
Old state -> New state
    1     ->     0 
    2     ->     1 
    3     ->     2 
    5     ->     3 
    6     ->     4 
    7     ->     5 
    4     ->     6 
    8     ->     7 
    9     ->     8 
    3     ->     9 
root 7 converged  |r|= 7.82e-07  e= 0.15498873127664511  max|de|= 1.07e-10
davidson 35 59  |r|= 0.96  e= [0.01172685 0.01379561 0.03394017 0.04312277 0.04416665 0.04636727
 0.11669714 0.15498873 0.15603002 0.1610299 ]  max|de|= 0.127  lindep= 0.197
Old state -> New state
    2     ->     3 
    3     ->     4 
    4     ->     5 
    5     ->     6 
davidson 36 61  |r|= 0.978  e= [0.01172685 0.01379561 0.02371978 0.03394017 0.04312277 0.04416665
 0.04636727 0.15498873 0.15603002 0.16102657]  max|de|= -0.0102  lindep= 0.117
Old state -> New state
    3     ->     2 
    4     ->     3 
    5     ->     4 
    6     ->     5 
    8     ->     6 
davidson 37 64  |r|= 0.919  e= [0.01172685 0.01379561 0.03394017 0.04312277 0.04416665 0.04636727
 0.15341443 0.15498874 0.15603009 0.1610096 ]  max|de|= -0.00262  lindep= 0.239
Old state -> New state
    2     ->     6 
davidson 38 68  |r|= 1.03  e= [0.01172685 0.01379561 0.03394017 0.04312277 0.04416665 0.04636727
 0.09375232 0.15498873 0.15603002 0.16102751]  max|de|= 0.0598  lindep= 0.183
Old state -> New state
    2     ->     3 
    3     ->     4 
    4     ->     5 
    5     ->     6 
root 7 converged  |r|= 1.83e-07  e= 0.15498873148597755  max|de|= 1.26e-10
root 8 converged  |r|= 3.71e-07  e= 0.15603001885258047  max|de|= -4.05e-10
davidson 39 70  |r|= 0.985  e= [0.01172685 0.01379561 0.02361749 0.03394017 0.04312277 0.04416665
 0.04636727 0.15498873 0.15603002 0.16102566]  max|de|= -0.0103  lindep= 0.0412
Old state -> New state
    3     ->     2 
    4     ->     3 
    5     ->     4 
    6     ->     5 
    2     ->     6 
davidson 40 72  |r|= 1.26  e= [0.01172685 0.01379561 0.03394017 0.04312277 0.04416665 0.04636727
 0.1352681  0.15498873 0.15603002 0.16102129]  max|de|= 0.112  lindep= 0.196
Old state -> New state
    7     ->     6 
    8     ->     7 
    9     ->     8 
    6     ->     9 
davidson 41 74  |r|= 0.0525  e= [0.01172685 0.01379561 0.03394017 0.04312277 0.04416665 0.04636727
 0.15498873 0.15603002 0.16102409 0.19350875]  max|de|= 0.0582  lindep= 0.322
davidson 42 76  |r|= 0.134  e= [0.01172685 0.01379561 0.03394017 0.04312277 0.04416665 0.04636727
 0.15498873 0.15603002 0.16102457 0.1917355 ]  max|de|= -0.00177  lindep= 0.507
davidson 43 78  |r|= 0.0262  e= [0.01172685 0.01379561 0.03394017 0.04312277 0.04416665 0.04636727
 0.15498873 0.15603002 0.16102415 0.19241799]  max|de|= 0.000682  lindep= 0.223
davidson 44 10  |r|= 0.0262  e= [0.01172685 0.01379561 0.03394017 0.04312277 0.04416665 0.04636727
 0.15498873 0.15603002 0.16102415 0.19241799]  max|de|= 1.69e-15  lindep= 0.998
Old state -> New state
    2     ->     6 
    8     ->     7 
    6     ->     8 
    7     ->     9 
davidson 45 12  |r|= 1.15  e= [0.01172685 0.01379561 0.03394017 0.04312277 0.04416665 0.04636727
 0.08728693 0.14520492 0.15498873 0.15603002]  max|de|= 0.0533  lindep= 0.429
Old state -> New state
    8     ->     7 
    9     ->     8 
    7     ->     9 
davidson 46 14  |r|= 0.993  e= [0.01172685 0.01379561 0.03394017 0.04312277 0.04416665 0.04636727
 0.13513492 0.15498873 0.15603002 0.16102482]  max|de|= 0.0478  lindep= 0.529
Old state -> New state
    7     ->     6 
    8     ->     7 
    9     ->     8 
    6     ->     9 
davidson 47 16  |r|= 0.0207  e= [0.01172685 0.01379561 0.03394017 0.04312277 0.04416665 0.04636727
 0.15498873 0.15603002 0.16102426 0.1920879 ]  max|de|= 0.057  lindep= 0.762
Old state -> New state
    2     ->     6 
    6     ->     7 
    7     ->     8 
    8     ->     9 
davidson 48 18  |r|= 0.613  e= [0.01172685 0.01379561 0.03394017 0.04312277 0.04416665 0.04636727
 0.05649537 0.15498873 0.15603002 0.1610243 ]  max|de|= 0.0226  lindep= 0.23
Old state -> New state
    3     ->     5 
    5     ->     6 
    2     ->     7 
    7     ->     8 
    8     ->     9 
davidson 49 20  |r|= 0.79  e= [0.01172685 0.01379561 0.03394017 0.04312277 0.04416665 0.04528595
 0.04636727 0.12784566 0.15498873 0.15603002]  max|de|= 0.0939  lindep= 0.236
Old state -> New state
    6     ->     5 
    5     ->     6 
    8     ->     7 
    9     ->     8 
    7     ->     9 
davidson 50 22  |r|= 0.728  e= [0.01172685 0.01379561 0.03394017 0.04312277 0.04416665 0.04636727
 0.12148103 0.15498873 0.15603002 0.1610242 ]  max|de|= 0.0762  lindep= 0.399
Old state -> New state
    2     ->     3 
    3     ->     4 
    4     ->     5 
    5     ->     6 
davidson 51 24  |r|= 0.537  e= [0.01172685 0.01379561 0.01546476 0.03394017 0.04312277 0.04416665
 0.04636727 0.15498873 0.15603002 0.16102424]  max|de|= -0.0185  lindep= 0.244
Old state -> New state
    3     ->     0 
    0     ->     1 
    1     ->     2 
    3     ->     7 
    7     ->     8 
    8     ->     9 
davidson 52 26  |r|= 1.13  e= [0.01055634 0.01172685 0.01379561 0.03394017 0.04312277 0.04416665
 0.04636727 0.10758068 0.15498873 0.15603002]  max|de|= 0.0736  lindep= 0.189
Old state -> New state
    1     ->     0 
    2     ->     1 
    3     ->     2 
    4     ->     3 
    5     ->     4 
    6     ->     5 
    8     ->     6 
    9     ->     7 
    7     ->     8 
    7     ->     9 
davidson 53 28  |r|= 0.0225  e= [0.01172685 0.01379561 0.03394017 0.04312277 0.04416665 0.04636727
 0.15498873 0.15603002 0.16102446 0.19174542]  max|de|= 0.0842  lindep= 0.454
Old state -> New state
    2     ->     6 
    6     ->     7 
    7     ->     8 
    8     ->     9 
davidson 54 30  |r|= 0.691  e= [0.01172685 0.01379561 0.03394017 0.04312277 0.04416665 0.04636727
 0.08180267 0.15498873 0.15603002 0.16102436]  max|de|= 0.0479  lindep= 0.22
Old state -> New state
    7     ->     6 
    8     ->     7 
    9     ->     8 
davidson 55 32  |r|= 0.0699  e= [0.01172685 0.01379561 0.03394017 0.04312277 0.04416665 0.04636727
 0.15498873 0.15603002 0.16101692 0.16238026]  max|de|= 0.00136  lindep= 0.336
Old state -> New state
    1     ->     0 
    0     ->     1 
    1     ->     2 
    2     ->     3 
    3     ->     4 
    4     ->     5 
    5     ->     6 
    6     ->     7 
    7     ->     8 
    8     ->     9 
davidson 56 34  |r|= 0.887  e= [0.00763241 0.01172685 0.01379561 0.03394017 0.04312277 0.04416665
 0.04636727 0.15498873 0.15603002 0.16102423]  max|de|= -0.00616  lindep= 0.252
Old state -> New state
    1     ->     0 
    2     ->     1 
    3     ->     2 
    4     ->     3 
    5     ->     4 
    6     ->     5 
    7     ->     6 
    8     ->     7 
    9     ->     8 
    0     ->     9 
davidson 57 36  |r|= 1.18  e= [0.01172685 0.01379561 0.03394017 0.04312277 0.04416665 0.04636727
 0.15498873 0.15603002 0.16102422 0.17456788]  max|de|= 0.167  lindep= 0.348
Old state -> New state
    9     ->     6 
    6     ->     7 
    7     ->     8 
    8     ->     9 
davidson 58 38  |r|= 0.852  e= [0.01172685 0.01379561 0.03394017 0.04312277 0.04416665 0.04636727
 0.126302   0.15498873 0.15603002 0.16102424]  max|de|= -0.0483  lindep= 0.408
Old state -> New state
    2     ->     6 
davidson 59 40  |r|= 1.22  e= [0.01172685 0.01379561 0.03394017 0.04312277 0.04416665 0.04636727
 0.09569353 0.15498873 0.15603002 0.16102426]  max|de|= 0.0618  lindep=  0.2
Old state -> New state
    7     ->     6 
    8     ->     7 
    9     ->     8 
    6     ->     9 
root 8 converged  |r|= 8.44e-07  e= 0.16102425818100746  max|de|= -8.3e-10
davidson 60 42  |r|= 0.00454  e= [0.01172685 0.01379561 0.03394017 0.04312277 0.04416665 0.04636727
 0.15498873 0.15603002 0.16102426 0.19185507]  max|de|= 0.0962  lindep=  0.5
davidson 61 43  |r|= 0.539  e= [0.01172685 0.01379561 0.03394017 0.04312277 0.04416665 0.04636727
 0.15498873 0.15603002 0.16102426 0.18522467]  max|de|= -0.00663  lindep= 0.509
davidson 62 44  |r|= 0.00541  e= [0.01172685 0.01379561 0.03394017 0.04312277 0.04416665 0.04636727
 0.15498873 0.15603002 0.16102426 0.19182359]  max|de|= 0.0066  lindep= 0.608
Old state -> New state
    2     ->     3 
    3     ->     4 
    4     ->     5 
    5     ->     6 
    6     ->     7 
    7     ->     8 
    8     ->     9 
root 9 converged  |r|= 8.12e-07  e= 0.1610242604412106  max|de|= 2.52e-10
davidson 63 45  |r|= 0.693  e= [0.01172685 0.01379561 0.03291837 0.03394017 0.04312277 0.04416665
 0.04636727 0.15498873 0.15603002 0.16102426]  max|de|= -0.00102  lindep= 0.107
Old state -> New state
    3     ->     2 
    2     ->     7 
    7     ->     8 
    8     ->     9 
davidson 64 46  |r|= 1.19  e= [0.01172685 0.01379561 0.03394017 0.03458347 0.04312277 0.04416665
 0.04636727 0.13448127 0.15498873 0.15603002]  max|de|= 0.102  lindep= 0.0143
Old state -> New state
    8     ->     7 
    9     ->     8 
    2     ->     9 
davidson 65 48  |r|= 0.324  e= [0.01172685 0.01379561 0.03394017 0.03685236 0.04312277 0.04416665
 0.04636727 0.15498873 0.15603002 0.16102425]  max|de|= 0.127  lindep= 0.0428
Old state -> New state
    4     ->     3 
    5     ->     4 
    6     ->     5 
    7     ->     6 
    8     ->     7 
    9     ->     8 
    3     ->     9 
davidson 66 50  |r|= 0.00928  e= [0.01172685 0.01379561 0.03394017 0.04312277 0.04416665 0.04636727
 0.15498873 0.15603002 0.16102426 0.19181754]  max|de|= 0.155  lindep= 0.566
root 8 converged  |r|= 6.49e-07  e= 0.16102425540898277  max|de|= 3.57e-10
davidson 67 51  |r|= 0.00394  e= [0.01172685 0.01379561 0.03394017 0.04312277 0.04416665 0.04636727
 0.15498873 0.15603002 0.16102426 0.19181638]  max|de|= -1.16e-06  lindep= 0.243
davidson 68 52  |r|= 0.00549  e= [0.01172685 0.01379561 0.03394017 0.04312277 0.04416665 0.04636727
 0.15498873 0.15603002 0.16102426 0.19178724]  max|de|= -2.91e-05  lindep= 0.85
davidson 69 53  |r|= 0.00338  e= [0.01172685 0.01379561 0.03394017 0.04312277 0.04416665 0.04636727
 0.15498873 0.15603002 0.16102426 0.19179234]  max|de|= 5.1e-06  lindep= 0.183
davidson 70 54  |r|= 0.00345  e= [0.01172685 0.01379561 0.03394017 0.04312277 0.04416665 0.04636727
 0.15498873 0.15603002 0.16102426 0.19180136]  max|de|= 9.02e-06  lindep= 0.784
davidson 71 55  |r|= 0.00235  e= [0.01172685 0.01379561 0.03394017 0.04312277 0.04416665 0.04636727
 0.15498873 0.15603002 0.16102426 0.1917996 ]  max|de|= -1.76e-06  lindep= 0.156
davidson 72 56  |r|= 0.0024  e= [0.01172685 0.01379561 0.03394017 0.04312277 0.04416665 0.04636727
 0.15498873 0.15603002 0.16102426 0.19178791]  max|de|= -1.17e-05  lindep= 0.845
davidson 73 57  |r|= 0.00189  e= [0.01172685 0.01379561 0.03394017 0.04312277 0.04416665 0.04636727
 0.15498873 0.15603002 0.16102426 0.19178871]  max|de|= 8e-07  lindep= 0.11
davidson 74 58  |r|= 0.00161  e= [0.01172685 0.01379561 0.03394017 0.04312277 0.04416665 0.04636727
 0.15498873 0.15603002 0.16102426 0.19178952]  max|de|= 8.16e-07  lindep= 0.823
davidson 75 59  |r|= 0.000898  e= [0.01172685 0.01379561 0.03394017 0.04312277 0.04416665 0.04636727
 0.15498873 0.15603002 0.16102426 0.19178925]  max|de|= -2.72e-07  lindep= 0.235
davidson 76 60  |r|= 0.000837  e= [0.01172685 0.01379561 0.03394017 0.04312277 0.04416665 0.04636727
 0.15498873 0.15603002 0.16102426 0.19178741]  max|de|= -1.84e-06  lindep= 0.739
davidson 77 61  |r|= 0.000605  e= [0.01172685 0.01379561 0.03394017 0.04312277 0.04416665 0.04636727
 0.15498873 0.15603002 0.16102426 0.19178769]  max|de|= 2.79e-07  lindep= 0.143
davidson 78 62  |r|= 0.000544  e= [0.01172685 0.01379561 0.03394017 0.04312277 0.04416665 0.04636727
 0.15498873 0.15603002 0.16102426 0.19178786]  max|de|= 1.65e-07  lindep= 0.865
Old state -> New state
    0     ->     1 
    1     ->     2 
    2     ->     3 
    3     ->     4 
    4     ->     5 
    5     ->     6 
    6     ->     7 
    7     ->     8 
    8     ->     9 
davidson 79 63  |r|= 0.945  e= [0.0106325  0.01172685 0.01379561 0.03394017 0.04312277 0.04416665
 0.04636727 0.15498873 0.15603002 0.16102426]  max|de|= -0.00109  lindep= 0.128
Old state -> New state
    1     ->     0 
    2     ->     1 
    3     ->     2 
    4     ->     3 
    5     ->     4 
    6     ->     5 
    0     ->     6 
davidson 80 64  |r|= 1.46  e= [0.01172685 0.01379561 0.03394017 0.04312277 0.04416665 0.04636727
 0.13439587 0.15498873 0.15603002 0.16102425]  max|de|= 0.124  lindep= 0.175
Old state -> New state
    7     ->     6 
    8     ->     7 
    9     ->     8 
    6     ->     9 
davidson 81 66  |r|= 0.299  e= [0.01172685 0.01379561 0.03394017 0.04312277 0.04416665 0.04636727
 0.15498873 0.15603002 0.16102425 0.1899009 ]  max|de|= 0.0555  lindep= 0.556
davidson 82 67  |r|= 0.000423  e= [0.01172685 0.01379561 0.03394017 0.04312277 0.04416665 0.04636727
 0.15498873 0.15603002 0.16102426 0.19178726]  max|de|= 0.00189  lindep= 0.235
root 8 converged  |r|= 2.54e-07  e= 0.16102425649243965  max|de|= 4.41e-10
davidson 83 68  |r|= 0.201  e= [0.01172685 0.01379561 0.03394017 0.04312277 0.04416665 0.04636727
 0.15498873 0.15603002 0.16102426 0.1907314 ]  max|de|= -0.00106  lindep= 0.544
davidson 84 69  |r|= 0.000304  e= [0.01172685 0.01379561 0.03394017 0.04312277 0.04416665 0.04636727
 0.15498873 0.15603002 0.16102426 0.19178805]  max|de|= 0.00106  lindep= 0.617
davidson 85 70  |r|= 0.00306  e= [0.01172685 0.01379561 0.03394017 0.04312277 0.04416665 0.04636727
 0.15498873 0.15603002 0.16102426 0.19178346]  max|de|= -4.59e-06  lindep= 0.637
davidson 86 71  |r|= 0.000239  e= [0.01172685 0.01379561 0.03394017 0.04312277 0.04416665 0.04636727
 0.15498873 0.15603002 0.16102426 0.19178727]  max|de|= 3.81e-06  lindep= 0.652
davidson 87 72  |r|= 0.0144  e= [0.01172685 0.01379561 0.03394017 0.04312277 0.04416665 0.04636727
 0.15498873 0.15603002 0.16102426 0.19180208]  max|de|= 1.48e-05  lindep= 0.585
davidson 88 73  |r|= 0.000164  e= [0.01172685 0.01379561 0.03394017 0.04312277 0.04416665 0.04636727
 0.15498873 0.15603002 0.16102426 0.19178773]  max|de|= -1.43e-05  lindep= 0.541
davidson 89 74  |r|= 0.000361  e= [0.01172685 0.01379561 0.03394017 0.04312277 0.04416665 0.04636727
 0.15498873 0.15603002 0.16102426 0.19178722]  max|de|= -5.12e-07  lindep= 0.767
davidson 90 75  |r|= 9.3e-05  e= [0.01172685 0.01379561 0.03394017 0.04312277 0.04416665 0.04636727
 0.15498873 0.15603002 0.16102426 0.19178738]  max|de|= 1.64e-07  lindep= 0.43
davidson 91 76  |r|= 6.67e-05  e= [0.01172685 0.01379561 0.03394017 0.04312277 0.04416665 0.04636727
 0.15498873 0.15603002 0.16102426 0.19178753]  max|de|= 1.47e-07  lindep= 0.911
davidson 92 77  |r|= 4.7e-05  e= [0.01172685 0.01379561 0.03394017 0.04312277 0.04416665 0.04636727
 0.15498873 0.15603002 0.16102426 0.19178751]  max|de|= -2.3e-08  lindep= 0.152
davidson 93 10  |r|= 4.7e-05  e= [0.01172685 0.01379561 0.03394017 0.04312277 0.04416665 0.04636727
 0.15498873 0.15603002 0.16102426 0.19178751]  max|de|= 2.5e-16  lindep= 0.997
Old state -> New state
    2     ->     6 
    6     ->     7 
    7     ->     8 
    8     ->     9 
davidson 94 11  |r|= 1.31  e= [0.01172685 0.01379561 0.03394017 0.04312277 0.04416665 0.04636727
 0.08640419 0.15498873 0.15603002 0.16102426]  max|de|= 0.0525  lindep= 0.402
Old state -> New state
    7     ->     6 
    8     ->     7 
davidson 95 12  |r|= 0.468  e= [0.01172685 0.01379561 0.03394017 0.04312277 0.04416665 0.04636727
 0.15498873 0.15603002 0.1562851  0.16102426]  max|de|= 0.000255  lindep= 0.479
Old state -> New state
    9     ->     8 
    8     ->     9 
davidson 96 13  |r|= 5.08e-05  e= [0.01172685 0.01379561 0.03394017 0.04312277 0.04416665 0.04636727
 0.15498873 0.15603002 0.16102426 0.19178727]  max|de|= 0.0355  lindep= 0.718
davidson 97 14  |r|= 1.67e-05  e= [0.01172685 0.01379561 0.03394017 0.04312277 0.04416665 0.04636727
 0.15498873 0.15603002 0.16102426 0.19178746]  max|de|= 1.91e-07  lindep= 0.797
Old state -> New state
    2     ->     3 
    3     ->     4 
    4     ->     5 
    5     ->     6 
    6     ->     7 
    7     ->     8 
    8     ->     9 
davidson 98 15  |r|= 0.0154  e= [0.01172685 0.01379561 0.03394017 0.03456536 0.04312277 0.04416665
 0.04636727 0.15498873 0.15603002 0.16102426]  max|de|= 0.000625  lindep= 0.304
Old state -> New state
    4     ->     3 
    5     ->     4 
    6     ->     5 
    7     ->     6 
    8     ->     7 
    9     ->     8 
davidson 99 16  |r|= 0.84  e= [0.01172685 0.01379561 0.03394017 0.04312277 0.04416665 0.04636727
 0.15498873 0.15603002 0.16102426 0.18287346]  max|de|= 0.0218  lindep= 0.544
    CPU time for TDDFT   1001.89 sec, wall time     36.28 sec
TD-SCF states [9] not converged.
Excited State energies (eV)
[0.31910378 0.37539778 0.92355907 1.17343031 1.20183585 1.26171769
 4.2174582  4.24579308 4.3816932  4.97624023]
