 
:: initializing oneAPI environment ...
   slurm_script: BASH_VERSION = 4.2.46(1)-release
   args: Using "$@" for setvars.sh arguments: --force
:: advisor -- latest
:: ccl -- latest
:: clck -- latest
:: compiler -- latest
:: dal -- latest
:: debugger -- latest
:: dev-utilities -- latest
:: dnnl -- latest
:: dpcpp-ct -- latest
:: dpl -- latest
:: inspector -- latest
:: intelpython -- latest
:: ipp -- latest
:: ippcp -- latest
:: ipp -- latest
:: itac -- latest
:: mkl -- latest
:: mpi -- latest
:: tbb -- latest
:: vpl -- latest
:: vtune -- latest
:: oneAPI environment initialized ::
 
SLURM_CPUS_PER_TASK = 28
SLURM_MEM_PER_NODE = 127949
#INFO: **** input file is /home/yangjunjie/work/py-ch3-cl/work/step_-15/main.py ****
import sys
import pyscf
from pyscf import tdscf

def main(xyz_file, basis="631g*", xc="b3lyp", output="ene.out"):
    xyz = None

    with open(xyz_file, "r") as xyz:
        xyz = xyz.readlines()[2:]
        xyz = "".join(xyz)

    mol = pyscf.gto.Mole()
    mol.atom = xyz
    mol.basis = basis
    mol.verbose = 5
    mol.build()

    if xc is not None and xc != "hf":
        mf = pyscf.scf.RKS(mol)
        mf.xc = xc
        mf.kernel()
    else:
        mf = pyscf.scf.RHF(mol)
        mf.kernel()

    ene_mf = mf.e_tot

    tda = pyscf.tdscf.TDA(mf)
    tda.nstates = 10
    tda.kernel()
    ene_tda = tda.e[:5]
    dip_tda = tda.transition_dipole()[:5]

    rpa = pyscf.tdscf.RPA(mf)
    rpa.nstates = 10
    rpa.kernel()
    ene_rpa = rpa.e[:5]
    dip_rpa = rpa.transition_dipole()[:5]

    with open(output, "w") as f:
        f.write(f"RKS energy: {ene_mf: 12.8f}\n")
        f.write("TDA results:\n")
        for i, (ene, dip) in enumerate(zip(ene_tda, dip_tda)):
            f.write(f" {i:2d} {ene: 12.8f} {dip[0]: 12.8f} {dip[1]: 12.8f} {dip[2]: 12.8f}\n")
        
        f.write("\nRPA results:\n")
        for i, (ene, dip) in enumerate(zip(ene_rpa, dip_rpa)):
            f.write(f" {i:2d} {ene: 12.8f} {dip[0]: 12.8f} {dip[1]: 12.8f} {dip[2]: 12.8f}\n")

if __name__ == "__main__":
    xyz = sys.argv[1]
    main(xyz, basis="631g*", xc="b3lyp", output="out.log")
#INFO: ******************** input file end ********************


System: uname_result(system='Linux', node='pauling047', release='3.10.0-327.36.3.el7.x86_64', version='#1 SMP Thu Oct 20 04:56:07 EDT 2016', machine='x86_64')  Threads 28
Python 3.9.7 (default, Oct 27 2021, 01:23:21) 
[GCC 9.3.0]
numpy 1.21.2  scipy 1.6.2
Date: Tue Sep 27 23:10:10 2022
PySCF version 2.0.1
PySCF path  /home/yangjunjie/packages/pyscf/pyscf-main
GIT ORIG_HEAD 14b880cdc4bf7bb64f3989a147c0b04622efc498
GIT HEAD (branch master) 9d5b5bd309d1cc55fbd1a0ec76e26b5b0c7f76af

[ENV] PYSCF_MAX_MEMORY 127949
[ENV] PYSCF_TMPDIR /scratch/global/yangjunjie/
[CONFIG] conf_file /home/yangjunjie/.pyscf_conf.py
[INPUT] verbose = 5
[INPUT] max_memory = 127949 
[INPUT] num. atoms = 16
[INPUT] num. electrons = 68
[INPUT] charge = 0
[INPUT] spin (= nelec alpha-beta = 2S) = 0
[INPUT] symmetry False subgroup None
[INPUT] Mole.unit = angstrom
[INPUT]  1 C      0.000000010000   1.165662620000   1.150999900000 AA    0.000000018897   2.202783105443   2.175074580402 Bohr
[INPUT]  2 C      0.000000000000   1.186127360000   2.507414410000 AA    0.000000000000   2.241455859253   4.738326515688 Bohr
[INPUT]  3 C     -0.000000010000  -0.013831180000   3.218496300000 AA   -0.000000018897  -0.026137142180   6.082076539926 Bohr
[INPUT]  4 C     -0.000000010000  -1.197521650000   2.481323760000 AA   -0.000000018897  -2.262987946737   4.689022332776 Bohr
[INPUT]  5 C      0.000000000000  -1.148511660000   1.128795190000 AA    0.000000000000  -2.170372488270   2.133113759826 Bohr
[INPUT]  6 N      0.000000010000   0.013858830000   0.441283660000 AA    0.000000018897   0.026189393107   0.833905260646 Bohr
[INPUT]  7 C      0.000000000000   0.003389660000  -2.150454270000 AA    0.000000000000   0.006405529055  -4.063769613701 Bohr
[INPUT]  8 H      0.000000020000   2.066254260000   0.540222390000 AA    0.000000037795   3.904654655116   1.020872363458 Bohr
[INPUT]  9 H      0.000000000000   2.153477620000   3.042378440000 AA    0.000000000000   4.069482917180   5.749262018881 Bohr
[INPUT] 10 H     -0.000000020000  -0.024258570000   4.296117040000 AA   -0.000000037795  -0.045842053474   8.118484604677 Bohr
[INPUT] 11 H     -0.000000020000  -2.176988620000   2.999138840000 AA   -0.000000037795  -4.113912268095   5.667551017146 Bohr
[INPUT] 12 H      0.000000000000  -2.038398470000   0.496732450000 AA    0.000000000000  -3.852014841032   0.938688287684 Bohr
[INPUT] 13 H     -0.000000030000   1.033533110000  -1.812920480000 AA   -0.000000056692   1.953094518570  -3.425923192815 Bohr
[INPUT] 14 H     -0.890774950000  -0.503966720000  -1.798326710000 AA   -1.683320694123  -0.952359076695  -3.398344964390 Bohr
[INPUT] 15 H      0.890774980000  -0.503966680000  -1.798326710000 AA    1.683320750815  -0.952359001106  -3.398344964390 Bohr
[INPUT] 16 Cl    -0.000000010000  -0.006597300000  -3.969128700000 AA   -0.000000018897  -0.012467090162  -7.500566196151 Bohr
[INPUT] ---------------- BASIS SET ---------------- 
[INPUT] l, kappa, [nprim/nctr], expnt,             c_1 c_2 ...
[INPUT] C
[INPUT] 0    0    [6    /1   ]  3047.5249         0.0018347
                                457.36951         0.0140373
                                103.94869         0.0688426
                                29.210155         0.2321844
                                9.286663          0.4679413
                                3.163927          0.362312
[INPUT] 0    0    [3    /1   ]  7.8682724         -0.1193324
                                1.8812885         -0.1608542
                                0.5442493         1.1434564
[INPUT] 0    0    [1    /1   ]  0.1687144            1
[INPUT] 1    0    [3    /1   ]  7.8682724         0.0689991
                                1.8812885         0.316424
                                0.5442493         0.7443083
[INPUT] 1    0    [1    /1   ]  0.1687144            1
[INPUT] 2    0    [1    /1   ]  0.8                  1
[INPUT] Cl
[INPUT] 0    0    [6    /1   ]  25180.1           0.001833
                                3780.35           0.014034
                                860.474           0.069097
                                242.145           0.237452
                                77.3349           0.483034
                                26.247            0.339856
[INPUT] 0    0    [6    /1   ]  491.765           -0.0022974
                                116.984           -0.030714
                                37.4153           -0.112528
                                13.7834           0.045016
                                5.45215           0.589353
                                2.22588           0.465206
[INPUT] 0    0    [3    /1   ]  3.18649           -0.25183
                                1.14427           0.061589
                                0.420377          1.06018
[INPUT] 0    0    [1    /1   ]  0.142657             1
[INPUT] 1    0    [6    /1   ]  491.765           0.0039894
                                116.984           0.030318
                                37.4153           0.12988
                                13.7834           0.327951
                                5.45215           0.453527
                                2.22588           0.252154
[INPUT] 1    0    [3    /1   ]  3.18649           -0.014299
                                1.14427           0.323572
                                0.420377          0.743507
[INPUT] 1    0    [1    /1   ]  0.142657             1
[INPUT] 2    0    [1    /1   ]  0.75                 1
[INPUT] N
[INPUT] 0    0    [6    /1   ]  4173.511          0.0018348
                                627.4579          0.013995
                                142.9021          0.068587
                                40.23433          0.232241
                                12.82021          0.46907
                                4.390437          0.360455
[INPUT] 0    0    [3    /1   ]  11.626358         -0.114961
                                2.71628           -0.169118
                                0.772218          1.145852
[INPUT] 0    0    [1    /1   ]  0.2120313            1
[INPUT] 1    0    [3    /1   ]  11.626358         0.06758
                                2.71628           0.323907
                                0.772218          0.740895
[INPUT] 1    0    [1    /1   ]  0.2120313            1
[INPUT] 2    0    [1    /1   ]  0.8                  1
[INPUT] H
[INPUT] 0    0    [3    /1   ]  18.731137         0.0334946
                                2.8253937         0.23472695
                                0.6401217         0.81375733
[INPUT] 0    0    [1    /1   ]  0.1612778            1

nuclear repulsion = 376.164563732731
number of shells = 66
number of NR pGTOs = 272
number of NR cGTOs = 132
basis = 631g*
ecp = {}
CPU time:         0.37


******** <class 'pyscf.dft.rks.RKS'> ********
method = RKS
initial guess = minao
damping factor = 0
level_shift factor = 0
DIIS = <class 'pyscf.scf.diis.CDIIS'>
diis_start_cycle = 1
diis_space = 8
SCF conv_tol = 1e-09
SCF conv_tol_grad = None
SCF max_cycles = 50
direct_scf = True
direct_scf_tol = 1e-13
chkfile to save SCF result = /scratch/global/yangjunjie/tmp4gwg93h_
max_memory 127949 MB (current use 81 MB)
XC library pyscf.dft.libxc version 5.2.0
    S. Lehtola, C. Steigemann, M. J. Oliveira, and M. A. Marques, SoftwareX 7, 1 (2018)
XC functionals = b3lyp
    P. A. M. Dirac, Math. Proc. Cambridge Philos. Soc. 26, 376 (1930)
    F. Bloch, Z. Phys. 57, 545 (1929)
    A. D. Becke, Phys. Rev. A 38, 3098 (1988)
    C. Lee, W. Yang, and R. G. Parr, Phys. Rev. B 37, 785 (1988)
    B. Miehlich, A. Savin, H. Stoll, and H. Preuss, Chem. Phys. Lett. 157, 200 (1989)
    S. H. Vosko, L. Wilk, and M. Nusair, Can. J. Phys. 58, 1200 (1980)
radial grids: 
    Treutler-Ahlrichs [JCP 102, 346 (1995); DOI:10.1063/1.469408] (M4) radial grids
    
becke partition: Becke, JCP 88, 2547 (1988); DOI:10.1063/1.454033
pruning grids: <function nwchem_prune at 0x7fc776750ee0>
grids dens level: 3
symmetrized grids: False
atomic radii adjust function: <function treutler_atomic_radii_adjust at 0x7fc776750e50>
small_rho_cutoff = 1e-07
Set gradient conv threshold to 3.16228e-05
atom C rad-grids = 75, ang-grids = [ 50  50  50  50  50  50  50  50  50  50  50  50  50  50  50  50  50  50
  50  50  50  50  50  86  86  86  86  86  86  86  86  86  86 266 266 266
 266 266 266 266 302 302 302 302 302 302 302 302 302 302 302 302 302 302
 302 302 302 302 302 302 266 266 266 266 266 266 266 266 266 266 266 266
 266 266 266]
atom N rad-grids = 75, ang-grids = [ 50  50  50  50  50  50  50  50  50  50  50  50  50  50  50  50  50  50
  50  50  50  50  50  86  86  86  86  86  86  86  86  86 266 266 266 266
 266 266 266 302 302 302 302 302 302 302 302 302 302 302 302 302 302 302
 302 302 302 302 266 266 266 266 266 266 266 266 266 266 266 266 266 266
 266 266 266]
atom H rad-grids = 50, ang-grids = [ 50  50  50  50  50  50  50  50  50  50  50  50  50  50  86  86  86  86
 266 266 266 266 302 302 302 302 302 302 302 302 302 302 302 302 302 266
 266 266 266 266 266 266 266 266 266 266 266 266 266 266]
atom Cl rad-grids = 80, ang-grids = [ 50  50  50  50  50  50  50  50  50  50  50  50  50  50  50  50  50  50
  50  50  50  50  50  50  86  86  86  86  86  86  86  86  86  86  86  86
  86 350 350 350 350 350 350 350 350 350 434 434 434 434 434 434 434 434
 434 434 434 434 434 434 434 434 434 434 350 350 350 350 350 350 350 350
 350 350 350 350 350 350 350 350]
tot grids = 196530
Drop grids 33128
    CPU time for setting up grids      3.24 sec, wall time      0.13 sec
nelec by numeric integration = 67.97629012215958
    CPU time for vxc      6.32 sec, wall time      0.23 sec
E1 = -1765.5352141861417  Ecoul = 710.7074220809071  Exc = -70.37697640080894
init E= -749.040204773312
cond(S) = 6740.446151912464
    CPU time for initialize scf     17.01 sec, wall time      0.69 sec
  HOMO = -0.302153346658626  LUMO = -0.105516557938192
  mo_energy =
[-1.01597251e+02 -1.44012251e+01 -1.02936066e+01 -1.02931262e+01
 -1.02904935e+01 -1.02890814e+01 -1.02877342e+01 -1.02875756e+01
 -9.53822737e+00 -7.29412803e+00 -7.29290768e+00 -7.29290706e+00
 -1.09622577e+00 -9.37097285e-01 -9.28713104e-01 -8.93643814e-01
 -7.58306074e-01 -7.13016015e-01 -7.02249342e-01 -5.78154009e-01
 -5.31662740e-01 -5.01517885e-01 -4.73949854e-01 -4.73029788e-01
 -4.64781008e-01 -4.61527644e-01 -4.35668304e-01 -4.34686621e-01
 -3.85196484e-01 -3.43907989e-01 -3.42834423e-01 -3.21316337e-01
 -3.03108464e-01 -3.02153347e-01 -1.05516558e-01 -7.15063630e-02
 -3.36973222e-02  4.75428969e-02  7.17958540e-02  7.55873008e-02
  8.54354797e-02  1.08140498e-01  1.21686396e-01  1.23706638e-01
  1.42376369e-01  1.64369072e-01  1.92152939e-01  2.36887629e-01
  2.61893355e-01  2.76345879e-01  3.59773018e-01  3.92953682e-01
  4.00889971e-01  4.15039939e-01  4.15080579e-01  4.27476571e-01
  4.63151914e-01  4.74739014e-01  4.87249821e-01  5.09480233e-01
  5.19034808e-01  5.33103954e-01  5.36977997e-01  5.53293031e-01
  5.55218266e-01  5.56831069e-01  5.66200866e-01  6.09238661e-01
  6.31789171e-01  6.41392391e-01  6.81346359e-01  7.59507807e-01
  7.66059156e-01  7.83572212e-01  7.88438681e-01  7.90359790e-01
  7.94269356e-01  7.99321458e-01  8.27198962e-01  8.41406307e-01
  8.49181455e-01  8.65318534e-01  8.77244077e-01  8.98933339e-01
  9.08988224e-01  9.31633588e-01  9.75677138e-01  1.00885790e+00
  1.04723581e+00  1.08101238e+00  1.12819678e+00  1.15166331e+00
  1.16796805e+00  1.17716280e+00  1.30791904e+00  1.34082153e+00
  1.40247511e+00  1.41311319e+00  1.42057142e+00  1.44682038e+00
  1.45281894e+00  1.46783710e+00  1.62454097e+00  1.62653069e+00
  1.65484497e+00  1.70153695e+00  1.75592160e+00  1.76973271e+00
  1.85586252e+00  1.87708021e+00  1.98709318e+00  2.06741229e+00
  2.08074464e+00  2.09756553e+00  2.11030198e+00  2.12485844e+00
  2.13384099e+00  2.16870263e+00  2.18231994e+00  2.22501781e+00
  2.25474973e+00  2.30675972e+00  2.47596361e+00  2.48852171e+00
  2.60664627e+00  2.61331634e+00  2.62644269e+00  2.65847078e+00
  2.68798208e+00  2.69081378e+00  2.96217895e+00  3.32072853e+00]
nelec by numeric integration = 68.00002786854627
    CPU time for vxc      6.07 sec, wall time      0.22 sec
E1 = -1773.720601419954  Ecoul = 720.2936658441416  Exc = -70.81846049753487
cycle= 1 E= -748.080832340616  delta_E= 0.959  |g|= 0.379  |ddm|= 3.95
    CPU time for cycle= 1      6.57 sec, wall time      0.23 sec
  HOMO = -0.1983113772434  LUMO = 0.0049203948761308
  mo_energy =
[-1.01354234e+02 -1.42014716e+01 -1.01776005e+01 -1.01758331e+01
 -1.01466801e+01 -1.01402960e+01 -1.00924130e+01 -1.00913069e+01
 -9.31028745e+00 -7.07116106e+00 -7.06124148e+00 -7.06123289e+00
 -8.90719863e-01 -7.73605616e-01 -7.59092410e-01 -7.34208734e-01
 -6.17462687e-01 -6.03760316e-01 -5.94139579e-01 -5.13289146e-01
 -4.48630672e-01 -4.36494218e-01 -4.11811840e-01 -3.99946866e-01
 -3.98143585e-01 -3.83372387e-01 -3.62828493e-01 -3.37817421e-01
 -3.30634376e-01 -2.46286070e-01 -2.40579714e-01 -2.25123003e-01
 -2.24288740e-01 -1.98311377e-01  4.92039488e-03  2.43838313e-02
  8.14441525e-02  1.08308604e-01  1.29682792e-01  1.38264728e-01
  1.59406911e-01  1.65553945e-01  1.80632525e-01  1.83261936e-01
  1.87669678e-01  2.17113418e-01  2.73115424e-01  3.10761693e-01
  3.52176588e-01  3.54037915e-01  4.62885988e-01  4.70003727e-01
  4.87477483e-01  5.15910332e-01  5.16311449e-01  5.22062953e-01
  5.34065096e-01  5.61607257e-01  5.72923017e-01  6.00606071e-01
  6.02622033e-01  6.04795804e-01  6.20303748e-01  6.20340345e-01
  6.27914028e-01  6.30532832e-01  6.66067713e-01  6.79992050e-01
  7.14929942e-01  7.25019052e-01  7.72340305e-01  8.35220291e-01
  8.45170752e-01  8.54467218e-01  8.69354539e-01  8.92415469e-01
  9.14180951e-01  9.24333215e-01  9.29133162e-01  9.51214243e-01
  9.54805409e-01  9.80349121e-01  9.81932356e-01  1.01129987e+00
  1.02231134e+00  1.02478650e+00  1.05962198e+00  1.09827617e+00
  1.11425889e+00  1.14616731e+00  1.18828427e+00  1.24066400e+00
  1.25974827e+00  1.28897576e+00  1.41230055e+00  1.41280454e+00
  1.47750100e+00  1.51031008e+00  1.52702493e+00  1.54432812e+00
  1.56467044e+00  1.56679887e+00  1.74186351e+00  1.74349884e+00
  1.75458946e+00  1.79116043e+00  1.87801346e+00  1.88360018e+00
  1.96042292e+00  1.98089615e+00  2.10617592e+00  2.18823644e+00
  2.18830078e+00  2.21230934e+00  2.21895988e+00  2.23604817e+00
  2.25237163e+00  2.27825994e+00  2.29114427e+00  2.34499748e+00
  2.36596770e+00  2.41765951e+00  2.58777620e+00  2.59718660e+00
  2.71756496e+00  2.74399639e+00  2.74621595e+00  2.78691052e+00
  2.81426454e+00  2.82388114e+00  3.09247227e+00  3.45218109e+00]
nelec by numeric integration = 68.00002697244409
    CPU time for vxc      6.43 sec, wall time      0.23 sec
E1 = -1766.0342022924453  Ecoul = 712.0179571233475  Exc = -70.23192115573866
cycle= 2 E= -748.083602592105  delta_E= -0.00277  |g|= 0.391  |ddm|= 0.973
    CPU time for cycle= 2      6.94 sec, wall time      0.25 sec
  HOMO = -0.262906419578948  LUMO = -0.040086307654048
  mo_energy =
[-1.01469570e+02 -1.43619637e+01 -1.02147080e+01 -1.02141675e+01
 -1.02039086e+01 -1.02012415e+01 -1.02009231e+01 -1.01954864e+01
 -9.40400517e+00 -7.16681025e+00 -7.15717519e+00 -7.15716533e+00
 -9.55259032e-01 -8.14537256e-01 -8.10035415e-01 -7.77377513e-01
 -6.49238320e-01 -6.39280326e-01 -6.36539670e-01 -5.39777305e-01
 -4.90090977e-01 -4.72943854e-01 -4.42836054e-01 -4.21553977e-01
 -4.19644805e-01 -4.17537871e-01 -4.07464415e-01 -3.75333246e-01
 -3.67107150e-01 -2.96167228e-01 -2.78518958e-01 -2.66695421e-01
 -2.63340089e-01 -2.62906420e-01 -4.00863077e-02 -1.14249625e-02
  5.95855269e-02  8.73378382e-02  1.18242450e-01  1.24627292e-01
  1.40645522e-01  1.47261180e-01  1.56482194e-01  1.74201292e-01
  1.74482925e-01  2.06231253e-01  2.42519845e-01  2.85107698e-01
  3.17534227e-01  3.26747314e-01  4.37756814e-01  4.40914154e-01
  4.54270752e-01  4.88023256e-01  4.88274594e-01  4.88499655e-01
  5.02900114e-01  5.26323413e-01  5.49384750e-01  5.73562070e-01
  5.73668922e-01  5.76976773e-01  5.87317704e-01  5.95183724e-01
  5.95886414e-01  6.02414649e-01  6.24379036e-01  6.49647978e-01
  6.82004573e-01  6.94723291e-01  7.40238147e-01  8.09148173e-01
  8.20357009e-01  8.33559385e-01  8.39267699e-01  8.47268685e-01
  8.85159475e-01  8.88000538e-01  9.04103245e-01  9.16082499e-01
  9.26030924e-01  9.39434809e-01  9.41563362e-01  9.83308937e-01
  9.84499545e-01  9.89190038e-01  1.02086179e+00  1.07279839e+00
  1.08963244e+00  1.11983639e+00  1.16571869e+00  1.20800964e+00
  1.22494320e+00  1.23952996e+00  1.36779734e+00  1.38007482e+00
  1.45499840e+00  1.46780119e+00  1.47617754e+00  1.50374863e+00
  1.51191726e+00  1.52726107e+00  1.70887475e+00  1.71528942e+00
  1.71618162e+00  1.75533003e+00  1.82848736e+00  1.83181872e+00
  1.91699642e+00  1.94222325e+00  2.05981862e+00  2.13814589e+00
  2.14328688e+00  2.16240111e+00  2.17531136e+00  2.18803428e+00
  2.22200048e+00  2.25657566e+00  2.26891804e+00  2.29350838e+00
  2.32206778e+00  2.36893485e+00  2.53902723e+00  2.55428602e+00
  2.67198169e+00  2.69243835e+00  2.69599529e+00  2.73874273e+00
  2.76537686e+00  2.76684469e+00  3.03991010e+00  3.40236224e+00]
nelec by numeric integration = 68.00002664709336
    CPU time for vxc      6.22 sec, wall time      0.22 sec
E1 = -1769.776362916376  Ecoul = 715.9956409205049  Exc = -70.5056587122242
cycle= 3 E= -748.121816975364  delta_E= -0.0382  |g|= 0.0888  |ddm|= 0.492
    CPU time for cycle= 3      6.74 sec, wall time      0.24 sec
  HOMO = -0.258631066462937  LUMO = -0.0396353282568504
  mo_energy =
[-1.01490848e+02 -1.43262390e+01 -1.02277112e+01 -1.02269051e+01
 -1.02207313e+01 -1.02084426e+01 -1.02079658e+01 -1.02056990e+01
 -9.42174746e+00 -7.18482042e+00 -7.17531480e+00 -7.17530420e+00
 -9.47941871e-01 -8.18534106e-01 -8.14670735e-01 -7.80666609e-01
 -6.54021884e-01 -6.43681446e-01 -6.36240843e-01 -5.42770180e-01
 -4.92035267e-01 -4.75268418e-01 -4.45580686e-01 -4.23012864e-01
 -4.22685003e-01 -4.20026866e-01 -4.06994415e-01 -3.81783789e-01
 -3.68912666e-01 -2.94854777e-01 -2.81967486e-01 -2.70885255e-01
 -2.70221526e-01 -2.58631066e-01 -3.96353283e-02 -1.41820280e-02
  5.59796070e-02  8.51075054e-02  1.16993738e-01  1.23379986e-01
  1.39539357e-01  1.46513687e-01  1.55235263e-01  1.73602862e-01
  1.73863170e-01  2.05508049e-01  2.42448086e-01  2.82946531e-01
  3.18440063e-01  3.24829505e-01  4.30892963e-01  4.39917570e-01
  4.52359318e-01  4.82940384e-01  4.83269015e-01  4.86032745e-01
  5.00213598e-01  5.26082065e-01  5.46793695e-01  5.70484594e-01
  5.70956747e-01  5.74580585e-01  5.85936914e-01  5.92164803e-01
  5.92223209e-01  5.98206879e-01  6.27202032e-01  6.47149888e-01
  6.79418703e-01  6.92515237e-01  7.40217284e-01  8.06715636e-01
  8.15962979e-01  8.30870473e-01  8.37044279e-01  8.54545060e-01
  8.79970534e-01  8.83060955e-01  9.00333085e-01  9.12561210e-01
  9.20457438e-01  9.32677185e-01  9.36145470e-01  9.78253080e-01
  9.79587409e-01  9.85202483e-01  1.02382797e+00  1.07019628e+00
  1.08727635e+00  1.11952500e+00  1.16332292e+00  1.20781661e+00
  1.22276274e+00  1.23757929e+00  1.36531034e+00  1.38205118e+00
  1.45524409e+00  1.46274227e+00  1.47374077e+00  1.50247538e+00
  1.51558486e+00  1.53091969e+00  1.71033090e+00  1.71137076e+00
  1.71261650e+00  1.75592417e+00  1.82548062e+00  1.83353310e+00
  1.91529125e+00  1.93918912e+00  2.05595656e+00  2.13664461e+00
  2.14088743e+00  2.16052361e+00  2.17245987e+00  2.18779746e+00
  2.21799055e+00  2.25374930e+00  2.26614309e+00  2.29266467e+00
  2.31855801e+00  2.37005550e+00  2.53913419e+00  2.55114283e+00
  2.67032595e+00  2.69137364e+00  2.69500251e+00  2.73538715e+00
  2.76338410e+00  2.76667609e+00  3.04026190e+00  3.40014888e+00]
nelec by numeric integration = 68.00002665584694
    CPU time for vxc      6.10 sec, wall time      0.22 sec
E1 = -1769.8934037737317  Ecoul = 716.120987415345  Exc = -70.51525477193854
cycle= 4 E= -748.123107397594  delta_E= -0.00129  |g|= 0.0441  |ddm|= 0.107
    CPU time for cycle= 4      6.64 sec, wall time      0.24 sec
  HOMO = -0.263009324925825  LUMO = -0.0388419593803261
  mo_energy =
[-1.01487533e+02 -1.43375750e+01 -1.02270237e+01 -1.02266603e+01
 -1.02128871e+01 -1.02076566e+01 -1.02014891e+01 -1.02013608e+01
 -9.41950490e+00 -7.18241767e+00 -7.17299986e+00 -7.17298914e+00
 -9.49273272e-01 -8.17983064e-01 -8.11941630e-01 -7.78690431e-01
 -6.54954262e-01 -6.42076707e-01 -6.35641252e-01 -5.41155336e-01
 -4.90392245e-01 -4.73768489e-01 -4.44126608e-01 -4.24614838e-01
 -4.21773325e-01 -4.20532400e-01 -4.06609808e-01 -3.81963086e-01
 -3.67502960e-01 -2.93784628e-01 -2.79834339e-01 -2.70946030e-01
 -2.70262361e-01 -2.63009325e-01 -3.88419594e-02 -1.24074420e-02
  5.56061571e-02  8.63238570e-02  1.16964400e-01  1.22991897e-01
  1.40763317e-01  1.46425471e-01  1.56176340e-01  1.72318591e-01
  1.74023054e-01  2.04896692e-01  2.43117742e-01  2.84890221e-01
  3.18803310e-01  3.26234701e-01  4.30788145e-01  4.39989318e-01
  4.53295806e-01  4.82752472e-01  4.83070716e-01  4.86245655e-01
  5.02232253e-01  5.26581286e-01  5.46142333e-01  5.71710858e-01
  5.72728442e-01  5.75054054e-01  5.87232385e-01  5.93978243e-01
  5.95105970e-01  6.01055285e-01  6.25496622e-01  6.48624951e-01
  6.81970003e-01  6.92291167e-01  7.38632948e-01  8.08630098e-01
  8.19414099e-01  8.31342143e-01  8.37897317e-01  8.51243731e-01
  8.79757343e-01  8.82432923e-01  9.00816036e-01  9.14518872e-01
  9.20628628e-01  9.32380169e-01  9.36745400e-01  9.77556717e-01
  9.80636204e-01  9.85096098e-01  1.02246062e+00  1.07006917e+00
  1.08819520e+00  1.12016006e+00  1.16551866e+00  1.20847815e+00
  1.22157483e+00  1.23940970e+00  1.36772320e+00  1.38216038e+00
  1.45544123e+00  1.46578230e+00  1.47669217e+00  1.50290911e+00
  1.51466908e+00  1.52766748e+00  1.70969194e+00  1.71002319e+00
  1.71146886e+00  1.75631271e+00  1.82811780e+00  1.83377970e+00
  1.91794448e+00  1.94122039e+00  2.05865946e+00  2.13842399e+00
  2.14292440e+00  2.16310185e+00  2.17400391e+00  2.18866191e+00
  2.21667471e+00  2.25194991e+00  2.26443507e+00  2.29409376e+00
  2.32062890e+00  2.37000758e+00  2.54026190e+00  2.55341535e+00
  2.67204175e+00  2.69266505e+00  2.69560842e+00  2.73717115e+00
  2.76466829e+00  2.76810316e+00  3.04025195e+00  3.40153343e+00]
nelec by numeric integration = 68.00002676850512
    CPU time for vxc      6.19 sec, wall time      0.22 sec
E1 = -1769.8691819685612  Ecoul = 716.0949326198881  Exc = -70.51387384514423
cycle= 5 E= -748.123559461086  delta_E= -0.000452  |g|= 0.0101  |ddm|= 0.0509
    CPU time for cycle= 5      6.77 sec, wall time      0.24 sec
  HOMO = -0.261697099786274  LUMO = -0.0383345965953105
  mo_energy =
[-1.01484018e+02 -1.43356387e+01 -1.02234785e+01 -1.02231813e+01
 -1.02140687e+01 -1.02049376e+01 -1.02026766e+01 -1.02025128e+01
 -9.41680315e+00 -7.17962173e+00 -7.17022430e+00 -7.17021347e+00
 -9.47806395e-01 -8.16958190e-01 -8.11950075e-01 -7.77843963e-01
 -6.53860001e-01 -6.41542033e-01 -6.34980310e-01 -5.40768434e-01
 -4.89863058e-01 -4.73663215e-01 -4.43520175e-01 -4.23653730e-01
 -4.21000226e-01 -4.20328769e-01 -4.05810864e-01 -3.80843755e-01
 -3.67270555e-01 -2.93569224e-01 -2.79194159e-01 -2.69944219e-01
 -2.69275732e-01 -2.61697100e-01 -3.83345966e-02 -1.18264971e-02
  5.65963247e-02  8.64300228e-02  1.17447356e-01  1.23456034e-01
  1.41245509e-01  1.46715358e-01  1.56261367e-01  1.72986039e-01
  1.74194186e-01  2.05518938e-01  2.43659865e-01  2.84917017e-01
  3.19433234e-01  3.26456212e-01  4.31627569e-01  4.40509778e-01
  4.53895602e-01  4.83464909e-01  4.83785073e-01  4.86921334e-01
  5.02666308e-01  5.27086478e-01  5.46839114e-01  5.72201148e-01
  5.73213654e-01  5.75630018e-01  5.88084755e-01  5.94345481e-01
  5.94703291e-01  6.00982879e-01  6.26425722e-01  6.49130747e-01
  6.81778583e-01  6.93429388e-01  7.39811237e-01  8.08741692e-01
  8.18871101e-01  8.32153921e-01  8.38409420e-01  8.52390321e-01
  8.80773895e-01  8.83545472e-01  9.01335491e-01  9.14689010e-01
  9.21470360e-01  9.33505550e-01  9.37477129e-01  9.78705859e-01
  9.81294864e-01  9.85869860e-01  1.02337083e+00  1.07080232e+00
  1.08869040e+00  1.12067078e+00  1.16544526e+00  1.20883854e+00
  1.22249748e+00  1.23994979e+00  1.36805510e+00  1.38248456e+00
  1.45600289e+00  1.46609744e+00  1.47663691e+00  1.50420044e+00
  1.51563296e+00  1.52868454e+00  1.71095320e+00  1.71098785e+00
  1.71253804e+00  1.75705593e+00  1.82839586e+00  1.83436036e+00
  1.91783555e+00  1.94182216e+00  2.05916906e+00  2.13898857e+00
  2.14350446e+00  2.16312323e+00  2.17490601e+00  2.18942613e+00
  2.21798726e+00  2.25311079e+00  2.26558668e+00  2.29438866e+00
  2.32131045e+00  2.37101497e+00  2.54078238e+00  2.55396320e+00
  2.67254313e+00  2.69320001e+00  2.69642176e+00  2.73793464e+00
  2.76549766e+00  2.76843181e+00  3.04124515e+00  3.40216939e+00]
nelec by numeric integration = 68.00002670209852
    CPU time for vxc      6.21 sec, wall time      0.22 sec
E1 = -1769.7997390950911  Ecoul = 716.0209906852069  Exc = -70.50939915262128
cycle= 6 E= -748.123583829774  delta_E= -2.44e-05  |g|= 0.00443  |ddm|= 0.015
    CPU time for cycle= 6      6.78 sec, wall time      0.24 sec
  HOMO = -0.261902311839724  LUMO = -0.0383567412485964
  mo_energy =
[-1.01484084e+02 -1.43358974e+01 -1.02246695e+01 -1.02242997e+01
 -1.02132807e+01 -1.02051194e+01 -1.02023645e+01 -1.02021781e+01
 -9.41690070e+00 -7.17971304e+00 -7.17031870e+00 -7.17030785e+00
 -9.48281358e-01 -8.17102068e-01 -8.11871365e-01 -7.78098865e-01
 -6.53919099e-01 -6.41598943e-01 -6.35090155e-01 -5.40816323e-01
 -4.89969633e-01 -4.73635895e-01 -4.43717569e-01 -4.23788888e-01
 -4.21049419e-01 -4.20307079e-01 -4.06017342e-01 -3.80959575e-01
 -3.67287679e-01 -2.93537006e-01 -2.79402000e-01 -2.70064441e-01
 -2.69394075e-01 -2.61902312e-01 -3.83567412e-02 -1.19830527e-02
  5.64865057e-02  8.64872186e-02  1.17374276e-01  1.23407489e-01
  1.41189728e-01  1.46702026e-01  1.56327535e-01  1.72880436e-01
  1.74213971e-01  2.05409195e-01  2.43542178e-01  2.84995818e-01
  3.19295770e-01  3.26464701e-01  4.31588913e-01  4.40438844e-01
  4.53746887e-01  4.83357642e-01  4.83676621e-01  4.86735504e-01
  5.02563300e-01  5.27016361e-01  5.46751869e-01  5.72151019e-01
  5.73078970e-01  5.75532924e-01  5.87816764e-01  5.94319480e-01
  5.94877342e-01  6.01064446e-01  6.26270541e-01  6.48998696e-01
  6.81908385e-01  6.93180951e-01  7.39618130e-01  8.08733600e-01
  8.19127957e-01  8.31963599e-01  8.38326656e-01  8.52209895e-01
  8.80657584e-01  8.83408393e-01  9.01339738e-01  9.14756066e-01
  9.21387313e-01  9.33374983e-01  9.37412821e-01  9.78584486e-01
  9.81248421e-01  9.85786045e-01  1.02320833e+00  1.07071391e+00
  1.08860054e+00  1.12057271e+00  1.16550796e+00  1.20878943e+00
  1.22237926e+00  1.23983473e+00  1.36797181e+00  1.38246430e+00
  1.45589311e+00  1.46604420e+00  1.47669987e+00  1.50380289e+00
  1.51540475e+00  1.52858020e+00  1.71079336e+00  1.71084024e+00
  1.71238361e+00  1.75688163e+00  1.82835968e+00  1.83428134e+00
  1.91791670e+00  1.94162559e+00  2.05902943e+00  2.13885874e+00
  2.14332376e+00  2.16318740e+00  2.17465651e+00  2.18927929e+00
  2.21783125e+00  2.25297936e+00  2.26545158e+00  2.29442464e+00
  2.32111331e+00  2.37075467e+00  2.54068875e+00  2.55380619e+00
  2.67243795e+00  2.69313558e+00  2.69627183e+00  2.73775779e+00
  2.76528023e+00  2.76844733e+00  3.04104273e+00  3.40208096e+00]
nelec by numeric integration = 68.00002671580683
    CPU time for vxc      6.51 sec, wall time      0.23 sec
E1 = -1769.8121844614122  Ecoul = 716.0338269951999  Exc = -70.50979534597201
cycle= 7 E= -748.123589079453  delta_E= -5.25e-06  |g|= 0.000618  |ddm|= 0.00441
    CPU time for cycle= 7      7.07 sec, wall time      0.25 sec
  HOMO = -0.261890275954711  LUMO = -0.0383581081658679
  mo_energy =
[-1.01484377e+02 -1.43359143e+01 -1.02245867e+01 -1.02242561e+01
 -1.02134710e+01 -1.02053061e+01 -1.02022317e+01 -1.02020737e+01
 -9.41712907e+00 -7.17995026e+00 -7.17055227e+00 -7.17054143e+00
 -9.48261772e-01 -8.17189283e-01 -8.11892274e-01 -7.78050624e-01
 -6.53975304e-01 -6.41591871e-01 -6.35074633e-01 -5.40810832e-01
 -4.89951291e-01 -4.73609659e-01 -4.43682214e-01 -4.23827340e-01
 -4.21089178e-01 -4.20336131e-01 -4.06004779e-01 -3.81045262e-01
 -3.67277581e-01 -2.93549264e-01 -2.79358727e-01 -2.70152637e-01
 -2.69480560e-01 -2.61890276e-01 -3.83581082e-02 -1.19496170e-02
  5.64267265e-02  8.64686376e-02  1.17383208e-01  1.23408093e-01
  1.41206880e-01  1.46704353e-01  1.56322013e-01  1.72860706e-01
  1.74215949e-01  2.05410743e-01  2.43546977e-01  2.84996666e-01
  3.19316007e-01  3.26476654e-01  4.31509498e-01  4.40447228e-01
  4.53756274e-01  4.83295040e-01  4.83613604e-01  4.86703780e-01
  5.02579827e-01  5.27022595e-01  5.46713404e-01  5.72141252e-01
  5.73113583e-01  5.75534992e-01  5.87826508e-01  5.94301755e-01
  5.94874860e-01  6.01063216e-01  6.26268272e-01  6.49030002e-01
  6.81910796e-01  6.93201631e-01  7.39614269e-01  8.08764557e-01
  8.19108294e-01  8.31992077e-01  8.38343115e-01  8.52209059e-01
  8.80588255e-01  8.83332239e-01  9.01312799e-01  9.14737555e-01
  9.21338167e-01  9.33288818e-01  9.37365992e-01  9.78506668e-01
  9.81210731e-01  9.85752863e-01  1.02322140e+00  1.07067994e+00
  1.08861209e+00  1.12057430e+00  1.16551522e+00  1.20880401e+00
  1.22232815e+00  1.23985268e+00  1.36798825e+00  1.38246511e+00
  1.45590816e+00  1.46606168e+00  1.47671128e+00  1.50383897e+00
  1.51541704e+00  1.52857835e+00  1.71076556e+00  1.71078551e+00
  1.71234021e+00  1.75689339e+00  1.82837077e+00  1.83429056e+00
  1.91791422e+00  1.94166441e+00  2.05904799e+00  2.13887453e+00
  2.14335600e+00  2.16318454e+00  2.17469678e+00  2.18928435e+00
  2.21775896e+00  2.25291985e+00  2.26539468e+00  2.29441917e+00
  2.32115569e+00  2.37077606e+00  2.54069209e+00  2.55383635e+00
  2.67245098e+00  2.69315138e+00  2.69629459e+00  2.73779448e+00
  2.76531324e+00  2.76844646e+00  3.04106550e+00  3.40210230e+00]
nelec by numeric integration = 68.00002672192561
    CPU time for vxc      6.17 sec, wall time      0.22 sec
E1 = -1769.8143529126442  Ecoul = 716.0361906432203  Exc = -70.50999063713516
cycle= 8 E= -748.123589173828  delta_E= -9.44e-08  |g|= 0.000198  |ddm|= 0.00077
    CPU time for cycle= 8      6.69 sec, wall time      0.24 sec
  HOMO = -0.261889144518788  LUMO = -0.0383490087724534
  mo_energy =
[-1.01484391e+02 -1.43359101e+01 -1.02245814e+01 -1.02242285e+01
 -1.02134065e+01 -1.02052992e+01 -1.02022724e+01 -1.02020949e+01
 -9.41713373e+00 -7.17995724e+00 -7.17055725e+00 -7.17054642e+00
 -9.48257030e-01 -8.17182871e-01 -8.11883904e-01 -7.78052375e-01
 -6.53972178e-01 -6.41587271e-01 -6.35073675e-01 -5.40804213e-01
 -4.89947992e-01 -4.73616617e-01 -4.43684886e-01 -4.23822576e-01
 -4.21082373e-01 -4.20325561e-01 -4.06001092e-01 -3.81044005e-01
 -3.67277290e-01 -2.93540403e-01 -2.79361163e-01 -2.70150515e-01
 -2.69478204e-01 -2.61889145e-01 -3.83490088e-02 -1.19518638e-02
  5.64291570e-02  8.64703791e-02  1.17382721e-01  1.23408748e-01
  1.41209307e-01  1.46703021e-01  1.56326563e-01  1.72864304e-01
  1.74218011e-01  2.05411252e-01  2.43550464e-01  2.85001374e-01
  3.19317444e-01  3.26476966e-01  4.31504077e-01  4.40448888e-01
  4.53757356e-01  4.83296751e-01  4.83615335e-01  4.86707052e-01
  5.02583021e-01  5.27025356e-01  5.46717298e-01  5.72144146e-01
  5.73111058e-01  5.75534931e-01  5.87833437e-01  5.94313036e-01
  5.94877978e-01  6.01068295e-01  6.26270123e-01  6.49028167e-01
  6.81913009e-01  6.93202901e-01  7.39617980e-01  8.08758371e-01
  8.19117659e-01  8.31990882e-01  8.38343928e-01  8.52212070e-01
  8.80592239e-01  8.83335780e-01  9.01316034e-01  9.14741205e-01
  9.21341845e-01  9.33292267e-01  9.37368515e-01  9.78507627e-01
  9.81213776e-01  9.85755369e-01  1.02322231e+00  1.07068272e+00
  1.08861071e+00  1.12057730e+00  1.16551609e+00  1.20880310e+00
  1.22233026e+00  1.23985606e+00  1.36799193e+00  1.38246918e+00
  1.45590875e+00  1.46606700e+00  1.47671213e+00  1.50384162e+00
  1.51542202e+00  1.52858086e+00  1.71077205e+00  1.71078833e+00
  1.71234505e+00  1.75689723e+00  1.82837539e+00  1.83429580e+00
  1.91791911e+00  1.94166202e+00  2.05905360e+00  2.13887861e+00
  2.14335626e+00  2.16319138e+00  2.17469654e+00  2.18929208e+00
  2.21776540e+00  2.25292569e+00  2.26540027e+00  2.29442724e+00
  2.32115362e+00  2.37077928e+00  2.54069905e+00  2.55383781e+00
  2.67245551e+00  2.69315505e+00  2.69629663e+00  2.73779390e+00
  2.76531461e+00  2.76845448e+00  3.04106907e+00  3.40210538e+00]
nelec by numeric integration = 68.00002672147117
    CPU time for vxc      6.12 sec, wall time      0.22 sec
E1 = -1769.814061446846  Ecoul = 716.0358854786978  Exc = -70.50997694700102
cycle= 9 E= -748.123589182418  delta_E= -8.59e-09  |g|= 5.51e-05  |ddm|= 0.000184
    CPU time for cycle= 9      6.65 sec, wall time      0.24 sec
  HOMO = -0.261895572513284  LUMO = -0.0383544742862299
  mo_energy =
[-1.01484358e+02 -1.43359198e+01 -1.02245817e+01 -1.02242434e+01
 -1.02134207e+01 -1.02052855e+01 -1.02022689e+01 -1.02021056e+01
 -9.41710549e+00 -7.17992866e+00 -7.17052847e+00 -7.17051763e+00
 -9.48263370e-01 -8.17173247e-01 -8.11887665e-01 -7.78056808e-01
 -6.53967878e-01 -6.41590552e-01 -6.35078674e-01 -5.40808282e-01
 -4.89953647e-01 -4.73619312e-01 -4.43688236e-01 -4.23821215e-01
 -4.21081802e-01 -4.20327857e-01 -4.06005292e-01 -3.81034980e-01
 -3.67281556e-01 -2.93545591e-01 -2.79365117e-01 -2.70138377e-01
 -2.69466534e-01 -2.61895573e-01 -3.83544743e-02 -1.19560431e-02
  5.64350903e-02  8.64704132e-02  1.17381495e-01  1.23407563e-01
  1.41204619e-01  1.46702012e-01  1.56324261e-01  1.72864190e-01
  1.74215183e-01  2.05410788e-01  2.43547043e-01  2.84997596e-01
  3.19312956e-01  3.26473645e-01  4.31515013e-01  4.40445947e-01
  4.53756326e-01  4.83305352e-01  4.83624008e-01  4.86710692e-01
  5.02579289e-01  5.27021535e-01  5.46719801e-01  5.72143101e-01
  5.73107881e-01  5.75533605e-01  5.87829391e-01  5.94309340e-01
  5.94874523e-01  6.01064436e-01  6.26267029e-01  6.49024833e-01
  6.81909515e-01  6.93199999e-01  7.39615594e-01  8.08755639e-01
  8.19113760e-01  8.31988065e-01  8.38340691e-01  8.52208075e-01
  8.80599744e-01  8.83344659e-01  9.01316524e-01  9.14740470e-01
  9.21346605e-01  9.33303258e-01  9.37373577e-01  9.78516529e-01
  9.81216586e-01  9.85757709e-01  1.02321840e+00  1.07068477e+00
  1.08860931e+00  1.12057421e+00  1.16551345e+00  1.20880017e+00
  1.22233487e+00  1.23985049e+00  1.36798694e+00  1.38246496e+00
  1.45590522e+00  1.46606200e+00  1.47670689e+00  1.50383671e+00
  1.51541582e+00  1.52857698e+00  1.71077699e+00  1.71078620e+00
  1.71234645e+00  1.75689298e+00  1.82837034e+00  1.83429015e+00
  1.91791460e+00  1.94165808e+00  2.05904848e+00  2.13887346e+00
  2.14335164e+00  2.16318561e+00  2.17469194e+00  2.18928614e+00
  2.21777051e+00  2.25292864e+00  2.26540308e+00  2.29442092e+00
  2.32114919e+00  2.37077367e+00  2.54069326e+00  2.55383320e+00
  2.67245034e+00  2.69314921e+00  2.69629097e+00  2.73778889e+00
  2.76530951e+00  2.76844812e+00  3.04106320e+00  3.40209981e+00]
nelec by numeric integration = 68.00002672127826
    CPU time for vxc      6.10 sec, wall time      0.22 sec
E1 = -1769.813902395926  Ecoul = 716.0357129285842  Exc = -70.5099634485972
cycle= 10 E= -748.123589183208  delta_E= -7.9e-10  |g|= 2.15e-05  |ddm|= 9.39e-05
    CPU time for cycle= 10      6.61 sec, wall time      0.24 sec
  HOMO = -0.261896445630689  LUMO = -0.0383532732771447
  mo_energy =
[-1.01484371e+02 -1.43359237e+01 -1.02245861e+01 -1.02242284e+01
 -1.02134156e+01 -1.02052870e+01 -1.02022775e+01 -1.02020953e+01
 -9.41711686e+00 -7.17994021e+00 -7.17054005e+00 -7.17052922e+00
 -9.48262315e-01 -8.17177351e-01 -8.11886978e-01 -7.78055000e-01
 -6.53969068e-01 -6.41589231e-01 -6.35077334e-01 -5.40806629e-01
 -4.89952032e-01 -4.73618310e-01 -4.43686658e-01 -4.23821716e-01
 -4.21081919e-01 -4.20327558e-01 -4.06004231e-01 -3.81037978e-01
 -3.67280110e-01 -2.93544683e-01 -2.79363408e-01 -2.70142813e-01
 -2.69470794e-01 -2.61896446e-01 -3.83532733e-02 -1.19544748e-02
  5.64331132e-02  8.64702290e-02  1.17381761e-01  1.23408052e-01
  1.41205968e-01  1.46702003e-01  1.56324952e-01  1.72864114e-01
  1.74217217e-01  2.05410249e-01  2.43547856e-01  2.84998751e-01
  3.19314025e-01  3.26474545e-01  4.31512323e-01  4.40447070e-01
  4.53756018e-01  4.83302196e-01  4.83620822e-01  4.86708496e-01
  5.02580659e-01  5.27022403e-01  5.46718723e-01  5.72143516e-01
  5.73109266e-01  5.75534041e-01  5.87831008e-01  5.94310916e-01
  5.94875639e-01  6.01065968e-01  6.26266881e-01  6.49026178e-01
  6.81910451e-01  6.93201184e-01  7.39616091e-01  8.08756862e-01
  8.19114760e-01  8.31989409e-01  8.38342127e-01  8.52207763e-01
  8.80597126e-01  8.83341240e-01  9.01316381e-01  9.14740622e-01
  9.21344990e-01  9.33299192e-01  9.37371404e-01  9.78513055e-01
  9.81216000e-01  9.85756874e-01  1.02321881e+00  1.07068413e+00
  1.08860976e+00  1.12057527e+00  1.16551411e+00  1.20880053e+00
  1.22233250e+00  1.23985219e+00  1.36798861e+00  1.38246545e+00
  1.45590626e+00  1.46606398e+00  1.47670827e+00  1.50383889e+00
  1.51541660e+00  1.52857671e+00  1.71077560e+00  1.71078639e+00
  1.71234594e+00  1.75689424e+00  1.82837196e+00  1.83429102e+00
  1.91791572e+00  1.94165978e+00  2.05905053e+00  2.13887498e+00
  2.14335329e+00  2.16318700e+00  2.17469372e+00  2.18928804e+00
  2.21776859e+00  2.25292803e+00  2.26540245e+00  2.29442225e+00
  2.32115099e+00  2.37077503e+00  2.54069454e+00  2.55383505e+00
  2.67245193e+00  2.69315056e+00  2.69629250e+00  2.73779077e+00
  2.76531118e+00  2.76844940e+00  3.04106464e+00  3.40210144e+00]
nelec by numeric integration = 68.0000267211686
    CPU time for vxc      6.12 sec, wall time      0.22 sec
E1 = -1769.8140015275897  Ecoul = 716.0358197386363  Exc = -70.50997112675034
Extra cycle  E= -748.123589182972  delta_E= 2.35e-10  |g|= 3.59e-05  |ddm|= 5.78e-05
    CPU time for scf_cycle     91.06 sec, wall time      3.34 sec
    CPU time for SCF     91.07 sec, wall time      3.34 sec
converged SCF energy = -748.123589182972
Converting <class 'pyscf.dft.rks.RKS'> to RHF


******** <class 'pyscf.tdscf.rks.TDA'> for <class 'pyscf.dft.rks.RKS'> ********
nstates = 10 singlet
wfnsym = None
conv_tol = 1e-09
eigh lindep = 1e-12
eigh level_shift = 0
eigh max_space = 50
eigh max_cycle = 100
chkfile = /scratch/global/yangjunjie/tmp4gwg93h_
max_memory 127949 MB (current use 606 MB)


davidson 0 10  |r|= 0.253  e= [0.17977725 0.20060371 0.2121561  0.21229238 0.21717959 0.23906842
 0.23945143 0.28320829 0.36213839 0.37903574]  max|de|= 0.379  lindep=    1
Old state -> New state
    3     ->     2 
    2     ->     3 
davidson 1 20  |r|= 0.0478  e= [0.17674424 0.19964044 0.2118681  0.21200884 0.21287696 0.23900134
 0.23915003 0.25200529 0.30246554 0.30858015]  max|de|= -0.0705  lindep= 0.887
davidson 2 30  |r|= 0.0232  e= [0.17660716 0.19960407 0.21181064 0.21200807 0.21275328 0.23899947
 0.23912266 0.25150951 0.30030098 0.30449834]  max|de|= -0.00408  lindep= 0.835
davidson 3 40  |r|= 0.0386  e= [0.17660501 0.19960313 0.21180967 0.21200804 0.21274887 0.23899936
 0.23912189 0.25138273 0.29994573 0.30009778]  max|de|= -0.0044  lindep= 0.812
Old state -> New state
    9     ->     8 
    1     ->     9 
davidson 4 50  |r|= 0.104  e= [0.17660496 0.19960308 0.21180961 0.21200803 0.21274875 0.23899933
 0.23912181 0.25137076 0.29536601 0.29720943]  max|de|= 0.0976  lindep= 0.756
Old state -> New state
    9     ->     8 
    8     ->     9 
root 0 converged  |r|= 2.83e-06  e= 0.17660495721243524  max|de|= -9.4e-10
root 3 converged  |r|= 2.03e-06  e= 0.21200803435814536  max|de|= -2.83e-10
davidson 5 60  |r|= 0.0271  e= [0.17660496 0.19960308 0.21180961 0.21200803 0.21274874 0.23899933
 0.2391218  0.25136956 0.27802477 0.28913232]  max|de|= -0.0192  lindep= 0.785
Old state -> New state
    8     ->     9 
root 1 converged  |r|= 8.76e-07  e= 0.1996030776705503  max|de|= -5.52e-11
root 2 converged  |r|= 2.18e-06  e= 0.2118096086286541  max|de|= -1.52e-10
root 4 converged  |r|= 1.43e-06  e= 0.2127487437721512  max|de|= -6.64e-11
root 5 converged  |r|= 3.9e-06  e= 0.2389993325913657  max|de|= -3e-10
root 6 converged  |r|= 4.69e-06  e= 0.23912180030722138  max|de|= -5.32e-10
davidson 6 68  |r|= 0.0388  e= [0.17660496 0.19960308 0.21180961 0.21200803 0.21274874 0.23899933
 0.2391218  0.2513695  0.27643774 0.28474593]  max|de|= 0.00672  lindep= 0.841
davidson 7 10  |r|= 0.0388  e= [0.17660496 0.19960308 0.21180961 0.21200803 0.21274874 0.23899933
 0.2391218  0.2513695  0.27643774 0.28474593]  max|de|= 4.44e-16  lindep= 0.985
davidson 8 13  |r|= 0.0261  e= [0.17660496 0.19960308 0.21180961 0.21200803 0.21274874 0.23899933
 0.2391218  0.2513695  0.27630165 0.28169656]  max|de|= -0.00305  lindep= 0.76
root 7 converged  |r|= 3.64e-06  e= 0.2513694949091928  max|de|= -2.36e-10
davidson 9 16  |r|= 0.0126  e= [0.17660496 0.19960308 0.21180961 0.21200803 0.21274874 0.23899933
 0.2391218  0.25136949 0.27627264 0.28051425]  max|de|= -0.00118  lindep= 0.818
davidson 10 18  |r|= 0.00814  e= [0.17660496 0.19960308 0.21180961 0.21200803 0.21274874 0.23899933
 0.2391218  0.25136949 0.27626166 0.28013681]  max|de|= -0.000377  lindep= 0.866
davidson 11 20  |r|= 0.00335  e= [0.17660496 0.19960308 0.21180961 0.21200803 0.21274874 0.23899933
 0.2391218  0.25136949 0.27625881 0.28003203]  max|de|= -0.000105  lindep= 0.874
davidson 12 22  |r|= 0.00182  e= [0.17660496 0.19960308 0.21180961 0.21200803 0.21274874 0.23899933
 0.2391218  0.25136949 0.27625829 0.28000899]  max|de|= -2.3e-05  lindep= 0.86
davidson 13 24  |r|= 0.000748  e= [0.17660496 0.19960308 0.21180961 0.21200803 0.21274874 0.23899933
 0.2391218  0.25136949 0.2762582  0.28000444]  max|de|= -4.55e-06  lindep= 0.851
davidson 14 26  |r|= 0.000254  e= [0.17660496 0.19960308 0.21180961 0.21200803 0.21274874 0.23899933
 0.2391218  0.25136949 0.27625818 0.28000362]  max|de|= -8.21e-07  lindep= 0.83
davidson 15 28  |r|= 9.49e-05  e= [0.17660496 0.19960308 0.21180961 0.21200803 0.21274874 0.23899933
 0.2391218  0.25136949 0.27625818 0.28000353]  max|de|= -9.48e-08  lindep= 0.837
root 8 converged  |r|= 4.03e-06  e= 0.27625818233522004  max|de|= -1.62e-10
davidson 16 30  |r|= 4.03e-05  e= [0.17660496 0.19960308 0.21180961 0.21200803 0.21274874 0.23899933
 0.2391218  0.25136949 0.27625818 0.28000352]  max|de|= -1.12e-08  lindep=  0.8
davidson 17 31  |r|= 1.24e-05  e= [0.17660496 0.19960308 0.21180961 0.21200803 0.21274874 0.23899933
 0.2391218  0.25136949 0.27625818 0.28000351]  max|de|= -1.9e-09  lindep= 0.894
root 9 converged  |r|= 8e-06  e= 0.28000351305746457  max|de|= -2.26e-10
converged 18 32  |r|= 8e-06  e= [0.17660496 0.19960308 0.21180961 0.21200803 0.21274874 0.23899933
 0.2391218  0.25136949 0.27625818 0.28000351]  max|de|= -2.26e-10
    CPU time for TDA    283.59 sec, wall time     10.32 sec
Excited State energies (eV)
[4.80566566 5.4314764  5.76363302 5.76903246 5.78918819 6.5035031
 6.50683561 6.84011236 7.51736804 7.61928368]
Converting <class 'pyscf.dft.rks.RKS'> to RHF


******** <class 'pyscf.tdscf.rks.TDDFT'> for <class 'pyscf.dft.rks.RKS'> ********
nstates = 10 singlet
wfnsym = None
conv_tol = 1e-09
eigh lindep = 1e-12
eigh level_shift = 0
eigh max_space = 50
eigh max_cycle = 100
chkfile = /scratch/global/yangjunjie/tmp4gwg93h_
max_memory 127949 MB (current use 636 MB)


davidson 0 10  |r|= 0.399  e= [0.17977725 0.20060371 0.2121561  0.21229238 0.21717959 0.23906842
 0.23945143 0.28320829 0.36213839 0.37903574]  max|de|= 0.379  lindep=    1
Old state -> New state
    9     ->     0 
    8     ->     1 
    0     ->     2 
    1     ->     3 
    7     ->     4 
    4     ->     5 
    2     ->     6 
    3     ->     7 
    0     ->     8 
    5     ->     9 
davidson 1 20  |r|= 0.746  e= [0.06394956 0.07154438 0.17235323 0.19914638 0.20362366 0.21040061
 0.21199604 0.21215041 0.2187858  0.23899268]  max|de|= -0.315  lindep= 0.132
Old state -> New state
    1     ->     0 
    0     ->     1 
    2     ->     3 
    3     ->     4 
    7     ->     6 
    6     ->     7 
    0     ->     8 
    4     ->     9 
davidson 2 30  |r|= 1.58  e= [0.0071225  0.08838491 0.12675443 0.17479154 0.19930549 0.20965033
 0.21181418 0.21200413 0.22161643 0.23886613]  max|de|= 0.158  lindep= 0.157
Old state -> New state
    0     ->     1 
    3     ->     2 
    4     ->     3 
    5     ->     4 
    6     ->     5 
    9     ->     6 
    2     ->     7 
    5     ->     9 
davidson 3 40  |r|= 1.43  e= [0.01514138 0.02337552 0.1747181  0.1994339  0.20979313 0.21189045
 0.23892022 0.23899546 0.24135596 0.27958685]  max|de|= 0.112  lindep= 0.0456
Old state -> New state
    1     ->     0 
    2     ->     6 
    6     ->     7 
    7     ->     8 
    8     ->     9 
davidson 4 50  |r|= 1.41  e= [0.00555795 0.16389946 0.17469561 0.19939571 0.20979691 0.21191083
 0.21200605 0.23892012 0.23899778 0.24145549]  max|de|= 0.141  lindep= 0.05
Old state -> New state
    2     ->     1 
    3     ->     2 
    9     ->     3 
    2     ->     4 
    4     ->     5 
    5     ->     6 
    6     ->     7 
    7     ->     8 
    8     ->     9 
davidson 5 60  |r|= 1.36  e= [0.00187381 0.17472248 0.19938674 0.20053177 0.2082807  0.2098398
 0.21191439 0.21201054 0.23889531 0.23899722]  max|de|= -0.0409  lindep= 0.0353
Old state -> New state
    5     ->     3 
    6     ->     4 
    7     ->     5 
    8     ->     6 
    9     ->     7 
    3     ->     8 
    4     ->     9 
davidson 6 70  |r|=  1.3  e= [0.07070996 0.17469668 0.19939157 0.20986819 0.21189995 0.21200589
 0.23893513 0.23899711 0.24171757 0.25514093]  max|de|= 0.0688  lindep= 0.202
Old state -> New state
    0     ->     1 
    1     ->     2 
    2     ->     3 
    3     ->     4 
    4     ->     5 
    5     ->     6 
    6     ->     7 
    7     ->     8 
    8     ->     9 
davidson 7 80  |r|=  1.2  e= [0.0037429  0.08278672 0.1746959  0.19939198 0.20986504 0.21190182
 0.21200589 0.2389303  0.23899705 0.24171635]  max|de|= -0.067  lindep= 0.126
davidson 8 10  |r|=  1.2  e= [0.0037429  0.08278672 0.1746959  0.19939198 0.20986504 0.21190182
 0.21200589 0.2389303  0.23899705 0.24171635]  max|de|= -7.77e-16  lindep= 0.259
Old state -> New state
    2     ->     1 
    9     ->     2 
    2     ->     3 
    3     ->     4 
    4     ->     5 
    5     ->     6 
    6     ->     7 
    7     ->     8 
    8     ->     9 
davidson 9 20  |r|= 1.67  e= [0.02400058 0.05164657 0.16611464 0.17469598 0.19939192 0.20988298
 0.2119029  0.21200589 0.23896235 0.23899717]  max|de|= -0.123  lindep= 0.251
Old state -> New state
    5     ->     1 
    1     ->     2 
    5     ->     3 
    3     ->     4 
    4     ->     5 
    5     ->     6 
    6     ->     7 
    7     ->     8 
    8     ->     9 
davidson 10 30  |r|= 1.61  e= [0.02777503 0.09115657 0.16567296 0.16836752 0.17469814 0.19939189
 0.2098272  0.21189603 0.21200588 0.23892091]  max|de|= -0.119  lindep= 0.0577
Old state -> New state
    2     ->     1 
    4     ->     2 
    5     ->     3 
    6     ->     4 
    7     ->     5 
    8     ->     6 
    9     ->     7 
    2     ->     8 
    3     ->     9 
root 6 converged  |r|= 1.59e-05  e= 0.2120058788643501  max|de|= 6.92e-10
davidson 11 40  |r|= 1.44  e= [0.02001793 0.03666389 0.17469602 0.19939183 0.20984875 0.21190275
 0.21200588 0.23892444 0.23899715 0.24186193]  max|de|= -0.129  lindep= 0.173
Old state -> New state
    2     ->     3 
    2     ->     4 
    3     ->     5 
    4     ->     6 
    5     ->     7 
    6     ->     8 
    7     ->     9 
davidson 12 49  |r|= 1.24  e= [0.01514306 0.07631372 0.13238228 0.17469594 0.17633333 0.1993918
 0.20985671 0.21190324 0.21200587 0.23892754]  max|de|= -0.0423  lindep= 0.141
Old state -> New state
    3     ->     1 
    6     ->     2 
    5     ->     3 
    6     ->     4 
    7     ->     5 
    8     ->     6 
    9     ->     7 
    2     ->     8 
    4     ->     9 
davidson 13 59  |r|= 1.16  e= [0.01356424 0.17469619 0.18907426 0.19939185 0.20985227 0.21190398
 0.21200588 0.23892835 0.23899715 0.24186112]  max|de|= 0.107  lindep= 0.0814
Old state -> New state
    1     ->     0 
    3     ->     1 
    3     ->     2 
    4     ->     3 
    5     ->     4 
    6     ->     5 
    7     ->     6 
    8     ->     7 
    9     ->     8 
davidson 14 69  |r|= 0.574  e= [0.17469618 0.1993304  0.19939217 0.20987898 0.21190214 0.21200588
 0.23892955 0.23899708 0.241579   0.2658865 ]  max|de|= 0.024  lindep= 0.199
Old state -> New state
    3     ->     1 
    8     ->     9 
davidson 15 78  |r|=  0.7  e= [0.17469619 0.18993244 0.19939186 0.20988001 0.21190261 0.21200589
 0.23892954 0.23899708 0.24167727 0.28171202]  max|de|= 0.0401  lindep= 0.0414
root 0 converged  |r|= 2.74e-07  e= 0.17469618634620837  max|de|= 8.33e-16
root 2 converged  |r|= 2.9e-06  e= 0.1993918607229028  max|de|= -2.78e-17
root 5 converged  |r|= 2.43e-06  e= 0.212005885034536  max|de|= -2.78e-17
davidson 16 10  |r|=  0.7  e= [0.17469619 0.18993244 0.19939186 0.20988001 0.21190261 0.21200589
 0.23892954 0.23899708 0.24167727 0.28171202]  max|de|= 3.66e-15  lindep= 0.452
Old state -> New state
    8     ->     0 
    0     ->     1 
    1     ->     2 
    2     ->     3 
    3     ->     4 
    4     ->     5 
    5     ->     6 
    8     ->     7 
    6     ->     8 
    7     ->     9 
davidson 17 17  |r|= 1.22  e= [0.12776404 0.17469619 0.18985396 0.19939186 0.20987384 0.21190167
 0.21200589 0.22438112 0.2389305  0.23899707]  max|de|= -0.114  lindep= 0.103
Old state -> New state
    2     ->     1 
    1     ->     2 
    4     ->     5 
    5     ->     6 
    6     ->     7 
davidson 18 24  |r|= 1.25  e= [0.08439371 0.11363022 0.17469619 0.19939188 0.20337575 0.2098786
 0.21190221 0.21200589 0.23892872 0.23899707]  max|de|= -0.0762  lindep= 0.206
Old state -> New state
    1     ->     2 
    2     ->     3 
    2     ->     4 
    3     ->     5 
    5     ->     6 
    6     ->     7 
    6     ->     8 
    7     ->     9 
davidson 19 32  |r|=  1.3  e= [0.05711023 0.10712519 0.11701807 0.17469622 0.1763843  0.19939186
 0.20986474 0.211515   0.21190743 0.21200588]  max|de|= -0.0273  lindep= 0.0823
Old state -> New state
    2     ->     1 
    3     ->     2 
    5     ->     4 
    6     ->     5 
    8     ->     6 
    9     ->     7 
    6     ->     8 
    2     ->     9 
davidson 20 42  |r|= 1.37  e= [0.01573692 0.08279149 0.16112574 0.17469619 0.19939186 0.20986591
 0.21190253 0.21200588 0.23303163 0.2389292 ]  max|de|= 0.122  lindep= 0.178
Old state -> New state
    0     ->     1 
    0     ->     2 
    5     ->     4 
    4     ->     5 
    5     ->     6 
    6     ->     7 
    7     ->     8 
root 3 converged  |r|= 2.28e-07  e= 0.1746961862323262  max|de|= -7.26e-10
root 5 converged  |r|= 1.51e-07  e= 0.1993918564809964  max|de|= -6.1e-10
root 8 converged  |r|= 3e-07  e= 0.21200588502412135  max|de|= 9.67e-11
davidson 21 49  |r|= 1.19  e= [0.04236977 0.0512395  0.09770895 0.17469619 0.19323932 0.19939186
 0.20986793 0.21190255 0.21200589 0.23892921]  max|de|= 0.082  lindep= 0.0731
Old state -> New state
    0     ->     1 
    1     ->     2 
    3     ->     4 
davidson 22 56  |r|= 1.33  e= [0.0212161  0.03898689 0.06735316 0.17469619 0.18340364 0.19939186
 0.20986713 0.21190256 0.21200588 0.23892902]  max|de|= -0.0212  lindep= 0.049
Old state -> New state
    3     ->     2 
    5     ->     4 
    6     ->     5 
    7     ->     6 
    8     ->     7 
    9     ->     8 
    4     ->     9 
davidson 23 63  |r|= 1.59  e= [0.03435473 0.07496004 0.1650704  0.17469619 0.19939186 0.20986763
 0.21190259 0.21200589 0.23892921 0.23899708]  max|de|= 0.0556  lindep= 0.0652
Old state -> New state
    3     ->     1 
    3     ->     2 
    4     ->     3 
    5     ->     4 
    6     ->     5 
    7     ->     6 
    8     ->     7 
    9     ->     8 
    2     ->     9 
davidson 24 70  |r|= 1.28  e= [0.02081898 0.14696457 0.17469618 0.19939186 0.20986755 0.21190258
 0.21200588 0.23892873 0.2389971  0.24173715]  max|de|= 0.0767  lindep= 0.0853
Old state -> New state
    0     ->     1 
    2     ->     3 
    3     ->     4 
    4     ->     5 
    5     ->     6 
    6     ->     7 
    7     ->     8 
    8     ->     9 
root 2 converged  |r|= 1.16e-07  e= 0.1746961851431989  max|de|= 3.99e-10
davidson 25 77  |r|= 1.28  e= [0.02136133 0.05269202 0.17469619 0.17947796 0.19939186 0.20986748
 0.21190257 0.21200588 0.23892923 0.23899708]  max|de|= 0.0319  lindep= 0.0099
root 5 converged  |r|= 5.81e-06  e= 0.20986747986483872  max|de|= 4.43e-14
root 6 converged  |r|= 1.75e-06  e= 0.2119025727539755  max|de|= -4.55e-15
root 8 converged  |r|= 1.95e-05  e= 0.23892923184374085  max|de|= -1.11e-16
root 9 converged  |r|= 4.7e-06  e= 0.23899707877050722  max|de|= -8.33e-17
davidson 26 10  |r|= 1.28  e= [0.02136133 0.05269202 0.17469619 0.17947796 0.19939186 0.20986748
 0.21190257 0.21200588 0.23892923 0.23899708]  max|de|= -6.97e-14  lindep= 0.265
Old state -> New state
    0     ->     1 
    1     ->     2 
    2     ->     3 
davidson 27 13  |r|= 1.26  e= [0.02184197 0.07233098 0.11543436 0.17469618 0.19939186 0.20986748
 0.21190258 0.21200588 0.23892923 0.23899708]  max|de|= 0.0627  lindep= 0.0168
Old state -> New state
    2     ->     1 
    1     ->     2 
    3     ->     4 
    4     ->     5 
    5     ->     6 
    6     ->     7 
    7     ->     8 
    8     ->     9 
root 7 converged  |r|= 1.25e-06  e= 0.2119025760256587  max|de|= 4.47e-10
davidson 28 19  |r|=  1.6  e= [0.01917243 0.04601725 0.07176592 0.13345139 0.17469618 0.19939186
 0.20986745 0.21190258 0.21200588 0.23892921]  max|de|= -0.0694  lindep= 0.135
Old state -> New state
    0     ->     1 
    4     ->     3 
    5     ->     4 
    6     ->     5 
    7     ->     6 
    8     ->     7 
    9     ->     8 
    0     ->     9 
davidson 29 25  |r|= 1.21  e= [0.02046242 0.07090026 0.1648674  0.17469619 0.19939186 0.20986752
 0.21190258 0.21200588 0.23892929 0.23899708]  max|de|= 0.22  lindep= 0.0437
Old state -> New state
    5     ->     1 
    3     ->     2 
    4     ->     3 
    5     ->     4 
    6     ->     5 
    7     ->     6 
    8     ->     7 
    9     ->     8 
    2     ->     9 
root 8 converged  |r|= 3.83e-06  e= 0.2389970784718051  max|de|= -2.96e-10
davidson 30 31  |r|= 1.51  e= [0.02222077 0.09077447 0.17469619 0.19939186 0.20986752 0.21190258
 0.21200588 0.23892926 0.23899708 0.32597208]  max|de|= 0.161  lindep= 0.153
Old state -> New state
    2     ->     1 
    1     ->     9 
davidson 31 36  |r|= 1.06  e= [0.06415602 0.17469619 0.1786965  0.19939186 0.20986746 0.21190257
 0.21200588 0.23892924 0.23899708 0.32000924]  max|de|= 0.229  lindep= 0.193
Old state -> New state
    0     ->     1 
    1     ->     2 
    2     ->     9 
davidson 32 41  |r|= 1.24  e= [0.0454186  0.06594248 0.17469619 0.19939186 0.2098675  0.21190257
 0.21200588 0.23892925 0.23899708 0.28342124]  max|de|= 0.105  lindep= 0.0725
Old state -> New state
    2     ->     0 
    3     ->     1 
    4     ->     2 
    4     ->     3 
    5     ->     4 
    6     ->     5 
    7     ->     6 
    8     ->     7 
    9     ->     8 
root 7 converged  |r|= 2.25e-06  e= 0.23899707715360197  max|de|= 2.92e-10
davidson 33 47  |r|= 0.483  e= [0.17469618 0.19939186 0.20501536 0.20986746 0.21190258 0.21200588
 0.23892925 0.23899708 0.31063782 0.34107984]  max|de|= 0.0577  lindep= 0.214
Old state -> New state
    2     ->     0 
    0     ->     1 
    0     ->     2 
    1     ->     3 
    3     ->     4 
    4     ->     5 
    5     ->     6 
    6     ->     7 
    7     ->     8 
    8     ->     9 
root 5 converged  |r|= 3.13e-07  e= 0.21190257564954637  max|de|= -2.07e-10
davidson 34 52  |r|= 1.26  e= [0.14643147 0.16198309 0.17469619 0.19939186 0.20986751 0.21190258
 0.21200588 0.23892924 0.23899708 0.28864082]  max|de|= -0.0586  lindep= 0.148
Old state -> New state
    1     ->     0 
davidson 35 58  |r|= 1.23  e= [0.03456934 0.09112705 0.17469619 0.19939186 0.2098675  0.21190258
 0.21200588 0.23892915 0.23899708 0.28442534]  max|de|= -0.127  lindep= 0.104
Old state -> New state
    2     ->     1 
    3     ->     2 
    4     ->     3 
    1     ->     9 
davidson 36 63  |r|= 0.994  e= [0.03532362 0.17469619 0.19939186 0.20158048 0.20986749 0.21190258
 0.21200588 0.23892924 0.23899708 0.24690425]  max|de|= 0.156  lindep= 0.0509
Old state -> New state
    3     ->     1 
    1     ->     2 
    2     ->     3 
    9     ->     7 
    7     ->     8 
    8     ->     9 
root 9 converged  |r|= 1.15e-05  e= 0.23899707696705333  max|de|= -1.34e-10
davidson 37 66  |r|= 1.04  e= [0.02361403 0.08958155 0.17469619 0.19939186 0.20986749 0.21190258
 0.21200588 0.23821317 0.23892923 0.23899708]  max|de|= -0.112  lindep= 0.0905
Old state -> New state
    2     ->     0 
    2     ->     1 
    3     ->     2 
    4     ->     3 
    5     ->     4 
    6     ->     5 
    8     ->     6 
    9     ->     7 
    7     ->     8 
    1     ->     9 
davidson 38 70  |r|= 0.843  e= [0.17469618 0.18632924 0.19939186 0.20986749 0.21190258 0.21200588
 0.23892924 0.23899708 0.24229922 0.28085178]  max|de|= 0.191  lindep= 0.147
Old state -> New state
    1     ->     0 
    0     ->     1 
    8     ->     3 
    3     ->     4 
    4     ->     5 
    5     ->     6 
    6     ->     7 
    7     ->     8 
    8     ->     9 
root 4 converged  |r|= 2e-06  e= 0.20986749360322438  max|de|= -6.53e-10
root 7 converged  |r|= 1.08e-06  e= 0.2389292411674487  max|de|= 1.05e-10
davidson 39 73  |r|= 1.12  e= [0.16033008 0.17469619 0.19939186 0.2044743  0.20986749 0.21190258
 0.21200589 0.23892924 0.23899708 0.24229891]  max|de|= -0.0378  lindep= 0.0659
Old state -> New state
    4     ->     3 
    5     ->     4 
    6     ->     5 
    7     ->     6 
    8     ->     7 
    9     ->     8 
davidson 40 76  |r|= 1.03  e= [0.11631892 0.17469619 0.19939186 0.20986749 0.21190258 0.21200588
 0.23892924 0.23899708 0.24201082 0.28321792]  max|de|= -0.044  lindep= 0.0628
Old state -> New state
    2     ->     3 
    3     ->     4 
    4     ->     5 
    5     ->     6 
    4     ->     7 
    6     ->     8 
    7     ->     9 
davidson 41 79  |r|= 1.02  e= [0.08291385 0.17469619 0.19357508 0.19939186 0.20986749 0.21190258
 0.21200588 0.2123817  0.23892924 0.23899708]  max|de|= -0.0334  lindep= 0.0802
root 4 converged  |r|= 9.8e-07  e= 0.2098674903265749  max|de|= 7.36e-13
root 5 converged  |r|= 4.69e-06  e= 0.21190258091596006  max|de|= -8.71e-11
davidson 42 10  |r|= 1.02  e= [0.08291385 0.17469619 0.19357508 0.19939186 0.20986749 0.21190258
 0.21200588 0.2123817  0.23892924 0.23899708]  max|de|= -8.71e-11  lindep= 0.296
Old state -> New state
    3     ->     2 
    4     ->     3 
    5     ->     4 
    6     ->     5 
    5     ->     6 
    8     ->     7 
    9     ->     8 
    2     ->     9 
davidson 43 13  |r|= 1.03  e= [0.08309791 0.17469619 0.19939186 0.20986749 0.21190258 0.21200588
 0.21856501 0.23892924 0.23899708 0.30698857]  max|de|= 0.113  lindep= 0.0181
Old state -> New state
    7     ->     6 
    8     ->     7 
    9     ->     8 
root 3 converged  |r|= 1.14e-07  e= 0.20986749389647244  max|de|= -4.85e-10
davidson 44 16  |r|= 1.18  e= [0.08288936 0.17469619 0.19939186 0.20986749 0.21190258 0.21200588
 0.23892924 0.23899708 0.35630888 0.48944939]  max|de|= 0.182  lindep= 0.0104
Old state -> New state
    8     ->     1 
    1     ->     2 
    2     ->     3 
    3     ->     4 
    3     ->     5 
    4     ->     6 
    5     ->     7 
    6     ->     8 
    7     ->     9 
davidson 45 19  |r|= 1.18  e= [0.08282664 0.10760552 0.17469619 0.19939186 0.20366415 0.2098675
 0.21190258 0.21200588 0.23892924 0.23899708]  max|de|= -0.249  lindep= 0.0126
Old state -> New state
    2     ->     1 
    3     ->     2 
    5     ->     3 
    6     ->     4 
    7     ->     5 
    8     ->     6 
    9     ->     7 
    1     ->     8 
    1     ->     9 
davidson 46 22  |r|= 1.03  e= [0.08306719 0.17469619 0.19939186 0.20986749 0.21190258 0.21200588
 0.23892924 0.23899708 0.28852365 0.30344315]  max|de|= 0.196  lindep= 0.00847
root 3 converged  |r|= 1.17e-07  e= 0.2098674934247771  max|de|= -9.44e-11
root 4 converged  |r|= 3.88e-08  e= 0.21190257556653552  max|de|= 4.88e-11
davidson 47 25  |r|= 1.04  e= [0.0828945  0.17469619 0.19939186 0.20986749 0.21190258 0.21200588
 0.23892924 0.23899708 0.28863838 0.31219249]  max|de|= 0.00875  lindep= 0.0138
davidson 48 28  |r|=  1.1  e= [0.06963224 0.17469619 0.19939186 0.20986749 0.21190258 0.21200588
 0.23892924 0.23899708 0.27452006 0.28634231]  max|de|= -0.0259  lindep= 0.109
Old state -> New state
    6     ->     8 
    8     ->     9 
davidson 49 31  |r|= 1.08  e= [0.06853918 0.17469619 0.19939186 0.20986749 0.21190258 0.21200588
 0.23892917 0.23899708 0.23957341 0.27508979]  max|de|= -0.00109  lindep= 0.0608
Old state -> New state
    1     ->     2 
    2     ->     3 
    3     ->     4 
    4     ->     5 
    5     ->     6 
    9     ->     7 
    6     ->     8 
    7     ->     9 
davidson 50 35  |r|= 1.08  e= [0.06843899 0.17469619 0.1862745  0.19939186 0.20986749 0.21190258
 0.21200588 0.23280167 0.23892924 0.23899708]  max|de|= -0.0423  lindep= 0.00392
Old state -> New state
    2     ->     0 
    0     ->     1 
    1     ->     2 
    1     ->     3 
    3     ->     4 
    4     ->     5 
    5     ->     6 
    6     ->     7 
root 8 converged  |r|= 9.4e-07  e= 0.23892924306050387  max|de|= 6.24e-10
root 9 converged  |r|= 1.68e-06  e= 0.23899707746644142  max|de|= 7.75e-10
davidson 51 40  |r|= 1.29  e= [0.00816578 0.05568913 0.17469618 0.18430604 0.19939186 0.20986749
 0.21190258 0.21200588 0.23892924 0.23899708]  max|de|= -0.178  lindep= 0.103
Old state -> New state
    2     ->     1 
    4     ->     2 
    5     ->     3 
    6     ->     4 
    7     ->     5 
    8     ->     6 
    9     ->     7 
    2     ->     9 
davidson 52 43  |r|= 1.08  e= [0.14990129 0.17469619 0.19939186 0.20986749 0.21190258 0.21200588
 0.23892925 0.23899708 0.2402837  0.25825501]  max|de|= 0.142  lindep= 0.219
Old state -> New state
    0     ->     1 
    1     ->     2 
    2     ->     3 
    3     ->     4 
    4     ->     5 
    5     ->     6 
    6     ->     7 
    7     ->     8 
    8     ->     9 
root 4 converged  |r|= 4.27e-08  e= 0.2098674942904845  max|de|= 8.9e-10
davidson 53 47  |r|= 1.14  e= [0.10250022 0.14698189 0.17469619 0.19939186 0.20986749 0.21190258
 0.21200588 0.23892924 0.23899708 0.24384838]  max|de|= -0.0474  lindep= 0.12
Old state -> New state
    2     ->     1 
    3     ->     2 
    4     ->     3 
    5     ->     4 
    6     ->     5 
    7     ->     6 
    8     ->     7 
    9     ->     8 
    1     ->     9 
root 6 converged  |r|= 1.43e-07  e= 0.2389292418013328  max|de|= -6.29e-10
davidson 54 50  |r|= 1.01  e= [0.09632791 0.17469619 0.19939186 0.20986749 0.21190258 0.21200588
 0.23892924 0.23899708 0.24300971 0.2837019 ]  max|de|= 0.137  lindep= 0.0248
Old state -> New state
    1     ->     0 
    0     ->     1 
    1     ->     2 
    2     ->     3 
    3     ->     4 
    4     ->     5 
    5     ->     6 
    6     ->     7 
    7     ->     8 
    8     ->     9 
davidson 55 53  |r|= 1.22  e= [0.05176527 0.08261403 0.17469619 0.19939186 0.20986749 0.21190258
 0.21200588 0.23892924 0.23899708 0.24313868]  max|de|= -0.123  lindep= 0.0773
Old state -> New state
    2     ->     1 
    3     ->     2 
    4     ->     3 
davidson 56 56  |r|= 1.01  e= [0.04847955 0.17469619 0.19939186 0.20986741 0.21021515 0.21190258
 0.21200588 0.23892924 0.23899708 0.24307868]  max|de|= -0.00329  lindep= 0.0341
Old state -> New state
    5     ->     4 
    6     ->     5 
    9     ->     6 
davidson 57 60  |r|= 1.02  e= [0.0482993  0.17469619 0.19939186 0.20986749 0.21190258 0.21200588
 0.22954246 0.23892924 0.23899708 0.24331903]  max|de|= -0.0135  lindep= 0.00293
Old state -> New state
    7     ->     6 
    8     ->     7 
    9     ->     8 
root 3 converged  |r|= 1.02e-08  e= 0.20986749371517743  max|de|= 9.34e-10
davidson 58 63  |r|= 1.01  e= [0.04750671 0.17469619 0.19939186 0.20986749 0.21190258 0.21200588
 0.23892924 0.23899708 0.24272699 0.25770264]  max|de|= 0.0144  lindep= 0.0116
Old state -> New state
    0     ->     1 
    1     ->     2 
    2     ->     3 
    3     ->     4 
    4     ->     5 
    5     ->     6 
    6     ->     7 
    7     ->     8 
    8     ->     9 
davidson 59 66  |r|= 1.27  e= [0.0330391  0.10139694 0.17469619 0.19939186 0.20986749 0.21190258
 0.21200588 0.23892924 0.23899708 0.24289832]  max|de|= 0.0539  lindep= 0.0596
Old state -> New state
    2     ->     1 
davidson 60 69  |r|= 1.08  e= [0.03320863 0.17469618 0.17683105 0.19939186 0.20986749 0.21190258
 0.21200588 0.23892924 0.23899708 0.24259805]  max|de|= 0.00213  lindep= 0.00508
Old state -> New state
    1     ->     0 
    0     ->     1 
    3     ->     2 
    4     ->     3 
    5     ->     4 
    6     ->     5 
    7     ->     6 
    8     ->     7 
    9     ->     8 
davidson 61 72  |r|= 0.857  e= [0.17469618 0.18719276 0.19939186 0.20986749 0.21190258 0.21200588
 0.23892924 0.23899708 0.24321712 0.26664988]  max|de|= 0.154  lindep= 0.146
root 0 converged  |r|= 7.64e-08  e= 0.17469618492855946  max|de|= 2.66e-11
davidson 62 75  |r|= 0.94  e= [0.17469618 0.18159684 0.19939186 0.20986749 0.21190258 0.21200588
 0.23892924 0.23899708 0.24264317 0.28234265]  max|de|= 0.0157  lindep= 0.0299
Old state -> New state
    2     ->     1 
    3     ->     2 
    4     ->     3 
    5     ->     4 
    6     ->     5 
    7     ->     6 
    8     ->     7 
davidson 63 78  |r|= 0.447  e= [0.17469618 0.19939186 0.2098675  0.21190258 0.21200588 0.23892924
 0.23899708 0.24105048 0.27214284 0.27951399]  max|de|= 0.0295  lindep= 0.363
root 2 converged  |r|= 2.26e-07  e= 0.20986749533928764  max|de|= 4.83e-11
davidson 64 10  |r|= 0.447  e= [0.17469618 0.19939186 0.2098675  0.21190258 0.21200588 0.23892924
 0.23899708 0.24105048 0.27214284 0.27951398]  max|de|= -5.14e-09  lindep= 0.889
Old state -> New state
    7     ->     0 
    0     ->     1 
    1     ->     2 
    2     ->     3 
    2     ->     4 
    3     ->     5 
    4     ->     6 
    5     ->     7 
    6     ->     8 
    7     ->     9 
davidson 65 13  |r|=  1.5  e= [0.08070754 0.17469618 0.19939186 0.2098675  0.21046127 0.21190258
 0.21200588 0.23892924 0.23899708 0.24203017]  max|de|= -0.16  lindep= 0.346
Old state -> New state
    3     ->     0 
    5     ->     4 
    6     ->     5 
    7     ->     6 
    8     ->     7 
    9     ->     8 
davidson 66 16  |r|= 1.31  e= [0.07101496 0.17469619 0.19939186 0.20986749 0.21190258 0.21200588
 0.23892924 0.23899708 0.24192274 0.27820514]  max|de|= -0.139  lindep= 0.333
root 4 converged  |r|= 1.05e-07  e= 0.2119025760938631  max|de|= -5.28e-10
davidson 67 19  |r|= 1.07  e= [0.03499441 0.17469618 0.19939186 0.20986749 0.21190258 0.21200588
 0.23892924 0.23899708 0.24160025 0.27876175]  max|de|= -0.036  lindep= 0.306
Old state -> New state
    8     ->     1 
    1     ->     2 
    2     ->     3 
    3     ->     4 
    4     ->     5 
    5     ->     6 
    6     ->     7 
    7     ->     8 
    8     ->     9 
root 4 converged  |r|= 1.49e-07  e= 0.20986749242040825  max|de|= 5.71e-11
davidson 68 22  |r|= 1.57  e= [0.03449302 0.1105488  0.17469618 0.19939186 0.20986749 0.21190258
 0.21200588 0.23892924 0.23899708 0.24176449]  max|de|= -0.131  lindep= 0.0681
Old state -> New state
    1     ->     0 
    0     ->     1 
    9     ->     2 
    2     ->     3 
    3     ->     4 
    4     ->     5 
    5     ->     6 
    6     ->     7 
    7     ->     8 
    8     ->     9 
davidson 69 25  |r|= 1.48  e= [0.01525739 0.03760153 0.06853554 0.17469618 0.19939186 0.20986749
 0.21190258 0.21200588 0.23892924 0.23899708]  max|de|= -0.173  lindep= 0.286
Old state -> New state
    5     ->     1 
    3     ->     2 
    4     ->     3 
    5     ->     4 
    6     ->     5 
    7     ->     6 
    8     ->     7 
    9     ->     8 
    2     ->     9 
davidson 70 28  |r|= 1.47  e= [0.01454747 0.06051401 0.17469619 0.19939186 0.20986749 0.21190258
 0.21200588 0.23892924 0.23899708 0.24181193]  max|de|= 0.173  lindep= 0.0604
Old state -> New state
    0     ->     1 
davidson 71 31  |r|= 1.34  e= [0.01558059 0.03548742 0.17469619 0.19939186 0.20986749 0.21190258
 0.21200588 0.23892924 0.23899708 0.24177461]  max|de|= 0.0209  lindep=  0.1
Old state -> New state
    1     ->     0 
    2     ->     1 
    3     ->     2 
    4     ->     3 
    5     ->     4 
    6     ->     5 
    7     ->     6 
    8     ->     7 
    9     ->     8 
    1     ->     9 
davidson 72 34  |r|= 1.34  e= [0.08906543 0.17469619 0.19939186 0.20986749 0.21190258 0.21200588
 0.23892924 0.23899708 0.24163075 0.27718027]  max|de|= 0.242  lindep= 0.153
Old state -> New state
    0     ->     1 
    1     ->     2 
    2     ->     3 
    3     ->     4 
    4     ->     5 
    5     ->     6 
    6     ->     7 
    7     ->     8 
    8     ->     9 
root 4 converged  |r|= 1.6e-07  e= 0.209867491798964  max|de|= 9.1e-11
davidson 73 37  |r|= 1.35  e= [0.03000876 0.07676059 0.17469619 0.19939186 0.20986749 0.21190258
 0.21200588 0.23892924 0.23899708 0.24173994]  max|de|= -0.0591  lindep= 0.106
Old state -> New state
    2     ->     0 
    0     ->     1 
    3     ->     2 
    4     ->     3 
    5     ->     4 
    6     ->     5 
    7     ->     6 
    8     ->     7 
    9     ->     8 
    1     ->     9 
davidson 74 40  |r|= 1.18  e= [0.17469619 0.19046972 0.19939186 0.20986749 0.21190258 0.21200588
 0.23892924 0.23899708 0.24168555 0.27262237]  max|de|= 0.196  lindep= 0.161
Old state -> New state
    1     ->     0 
    0     ->     1 
davidson 75 43  |r|= 1.18  e= [0.13110449 0.17469618 0.19939186 0.2098675  0.21190258 0.21200588
 0.23892924 0.23899708 0.24174556 0.27830362]  max|de|= -0.0594  lindep= 0.138
Old state -> New state
    1     ->     0 
    3     ->     6 
    6     ->     7 
    7     ->     8 
    8     ->     9 
davidson 76 46  |r|= 0.876  e= [0.16334131 0.17469618 0.19939186 0.20986749 0.21190258 0.21200588
 0.21589944 0.23892924 0.23899708 0.24168524]  max|de|= -0.0114  lindep= 0.142
Old state -> New state
    1     ->     2 
    2     ->     3 
    3     ->     4 
    4     ->     5 
    5     ->     6 
    6     ->     7 
    7     ->     8 
    8     ->     9 
davidson 77 49  |r|= 0.813  e= [0.14792868 0.1696387  0.17469618 0.19939186 0.20986749 0.21190257
 0.21200588 0.21678299 0.23892924 0.23899708]  max|de|= -0.0154  lindep= 0.0734
Old state -> New state
    0     ->     1 
    8     ->     7 
    9     ->     8 
    7     ->     9 
root 4 converged  |r|= 1.83e-07  e= 0.2098674924804008  max|de|= -6.09e-10
davidson 78 52  |r|= 1.04  e= [0.09468697 0.15046373 0.17469618 0.19939186 0.20986749 0.21190258
 0.21200588 0.23892924 0.23899708 0.24168161]  max|de|= -0.0532  lindep= 0.0676
root 5 converged  |r|= 1.26e-07  e= 0.21190257596675577  max|de|= 1.82e-10
davidson 79 55  |r|= 1.25  e= [0.09608858 0.15340164 0.17469618 0.19939186 0.20986749 0.21190258
 0.21200588 0.23892924 0.23899708 0.24168904]  max|de|= 0.00294  lindep= 0.0584
Old state -> New state
    2     ->     1 
root 4 converged  |r|= 1.88e-07  e= 0.2098674918163536  max|de|= 4.8e-10
davidson 80 58  |r|=  1.4  e= [0.00368208 0.15917007 0.17469618 0.19939186 0.20986749 0.21190258
 0.21200588 0.23892924 0.23899708 0.24169077]  max|de|= -0.0924  lindep= 0.087
Old state -> New state
    2     ->     0 
    2     ->     1 
    3     ->     2 
    4     ->     3 
    5     ->     4 
    6     ->     5 
    7     ->     6 
    8     ->     7 
    9     ->     8 
    0     ->     9 
davidson 81 61  |r|= 0.257  e= [0.17469616 0.17636929 0.19939186 0.20986749 0.21190258 0.21200588
 0.23892924 0.23899708 0.24168971 0.27755693]  max|de|= 0.274  lindep= 0.138
Old state -> New state
    3     ->     0 
    0     ->     1 
    1     ->     2 
    2     ->     3 
    3     ->     4 
    4     ->     5 
    5     ->     6 
    6     ->     7 
    7     ->     8 
    8     ->     9 
davidson 82 65  |r|= 0.879  e= [0.13296956 0.17469617 0.17631551 0.19939186 0.20986749 0.21190258
 0.21200588 0.23892924 0.23899708 0.24168912]  max|de|= -0.0769  lindep= 0.0886
Old state -> New state
    0     ->     1 
    1     ->     2 
root 4 converged  |r|= 1.75e-07  e= 0.2098674935204416  max|de|= 2.96e-10
davidson 83 69  |r|= 1.33  e= [0.03743923 0.15665523 0.17469619 0.19939186 0.20986749 0.21190258
 0.21200588 0.23892924 0.23899708 0.24168949]  max|de|= -0.0955  lindep= 0.129
Old state -> New state
    2     ->     0 
    3     ->     1 
    3     ->     2 
    4     ->     3 
    5     ->     4 
    6     ->     5 
    7     ->     6 
    8     ->     7 
    9     ->     8 
    1     ->     9 
root 0 converged  |r|= 1.95e-08  e= 0.1746961851039321  max|de|= -7.58e-10
davidson 84 72  |r|= 1.05  e= [0.17469619 0.19939186 0.20566494 0.20986749 0.21190258 0.21200588
 0.23892924 0.23899708 0.24168944 0.27659705]  max|de|= 0.12  lindep= 0.129
Old state -> New state
    2     ->     0 
    0     ->     1 
    1     ->     2 
    1     ->     3 
    3     ->     4 
    4     ->     5 
    5     ->     6 
    6     ->     7 
    7     ->     8 
    8     ->     9 
davidson 85 75  |r|=  1.2  e= [0.07870008 0.17469619 0.19874558 0.19939186 0.20986749 0.21190258
 0.21200588 0.23892924 0.23899708 0.24168932]  max|de|= -0.127  lindep= 0.13
Old state -> New state
    1     ->     2 
davidson 86 78  |r|= 1.15  e= [0.07993362 0.17469619 0.18538095 0.19939186 0.20986749 0.21190258
 0.21200588 0.23892924 0.23899708 0.24168939]  max|de|= 0.0107  lindep= 0.0128
root 4 converged  |r|= 7.39e-08  e= 0.20986749302194996  max|de|= 5.95e-10
davidson 87 10  |r|= 1.15  e= [0.07993362 0.17469619 0.18538095 0.19939186 0.20986749 0.21190258
 0.21200588 0.23892924 0.23899708 0.24168938]  max|de|= 5.78e-09  lindep= 0.222
Old state -> New state
    9     ->     2 
    4     ->     5 
    5     ->     6 
    6     ->     7 
    7     ->     8 
    8     ->     9 
davidson 88 13  |r|= 1.12  e= [0.08067325 0.17469619 0.19546695 0.19939186 0.206619   0.20986749
 0.21190258 0.21200589 0.23892924 0.23899708]  max|de|= -0.0462  lindep= 0.0258
Old state -> New state
    3     ->     2 
    5     ->     3 
    6     ->     4 
    7     ->     5 
    5     ->     6 
    8     ->     7 
    9     ->     8 
    2     ->     9 
davidson 89 16  |r|= 1.14  e= [0.0803302  0.17469619 0.19939186 0.20986749 0.21190257 0.21200588
 0.21244936 0.23892924 0.23899708 0.24168931]  max|de|= 0.0462  lindep= 0.0132
Old state -> New state
    6     ->     1 
    1     ->     2 
    2     ->     3 
    3     ->     4 
    4     ->     5 
    5     ->     6 
davidson 90 19  |r|= 1.15  e= [0.07999017 0.16771227 0.17469619 0.19939186 0.20986749 0.21190258
 0.21200588 0.23892924 0.23899708 0.24168943]  max|de|= -0.0447  lindep= 0.0364
Old state -> New state
    9     ->     7 
    7     ->     8 
    8     ->     9 
root 4 converged  |r|= 6.13e-08  e= 0.20986749415085512  max|de|= 3.15e-10
root 5 converged  |r|= 5.41e-08  e= 0.21190257547735597  max|de|= -2.1e-10
davidson 91 22  |r|= 1.16  e= [0.07783528 0.11721507 0.17469619 0.19939186 0.20986749 0.21190258
 0.21200588 0.2361613  0.23892924 0.23899708]  max|de|= -0.0505  lindep= 0.0757
Old state -> New state
    2     ->     1 
    3     ->     2 
    4     ->     3 
    5     ->     4 
    6     ->     5 
    8     ->     6 
    9     ->     7 
    7     ->     8 
    1     ->     9 
davidson 92 25  |r|= 1.15  e= [0.07734309 0.17469619 0.19939186 0.20986749 0.21190258 0.21200588
 0.23892924 0.23899708 0.24168943 0.28426662]  max|de|= 0.167  lindep= 0.022
Old state -> New state
    3     ->     4 
    4     ->     5 
    5     ->     6 
    6     ->     7 
    7     ->     8 
    8     ->     9 
davidson 93 28  |r|= 1.14  e= [0.07711902 0.17469619 0.19939186 0.20516833 0.20986749 0.21190258
 0.21200588 0.23892924 0.23899708 0.24168942]  max|de|= -0.0047  lindep= 0.00745
Old state -> New state
    4     ->     3 
    5     ->     4 
    6     ->     5 
    5     ->     6 
davidson 94 30  |r|= 1.14  e= [0.07725707 0.17469619 0.19939186 0.20986749 0.21190257 0.21200588
 0.2163432  0.23892924 0.23899708 0.24168943]  max|de|= 0.00444  lindep= 0.00467
Old state -> New state
    9     ->     6 
root 3 converged  |r|= 4.58e-08  e= 0.2098674939224133  max|de|= -2.42e-10
davidson 95 32  |r|= 1.18  e= [0.07227619 0.17469619 0.19939186 0.20986749 0.21190258 0.21200588
 0.22790014 0.23892924 0.23899708 0.24168946]  max|de|= -0.0138  lindep= 0.0651
Old state -> New state
    7     ->     6 
    8     ->     7 
    9     ->     8 
    6     ->     9 
davidson 96 35  |r|= 1.18  e= [0.07094212 0.17469619 0.19939186 0.20986749 0.21190258 0.21200588
 0.23892924 0.23899708 0.24168943 0.27820067]  max|de|= 0.0503  lindep= 0.0349
Old state -> New state
    3     ->     2 
    2     ->     3 
    3     ->     4 
    4     ->     5 
    5     ->     6 
    6     ->     7 
    7     ->     8 
    8     ->     9 
davidson 97 37  |r|= 1.18  e= [0.07007973 0.17469619 0.19062293 0.19939186 0.20986749 0.21190258
 0.21200588 0.23892924 0.23899708 0.24168942]  max|de|= -0.0192  lindep= 0.0247
Old state -> New state
    3     ->     2 
    4     ->     3 
    5     ->     4 
    6     ->     5 
    7     ->     6 
    8     ->     7 
    9     ->     8 
    2     ->     9 
davidson 98 39  |r|= 1.19  e= [0.06823958 0.17469619 0.19939186 0.20986749 0.21190258 0.21200588
 0.23892924 0.23899708 0.24168943 0.28325255]  max|de|= 0.0926  lindep= 0.00942
Old state -> New state
    3     ->     4 
    4     ->     5 
    5     ->     6 
    6     ->     7 
    7     ->     8 
    8     ->     9 
root 9 converged  |r|= 9.14e-07  e= 0.24168942531874185  max|de|= -1.51e-11
davidson 99 41  |r|=  1.2  e= [0.06788078 0.17469619 0.19939186 0.20922644 0.20986749 0.21190258
 0.21200588 0.23892924 0.23899708 0.24168943]  max|de|= -0.000641  lindep= 0.0235
    CPU time for TDDFT   1451.90 sec, wall time     52.12 sec
TD-SCF states [0, 3] not converged.
Excited State energies (eV)
[1.84713003 4.75372533 5.42572878 5.69334145 5.7107854  5.76616281
 5.76897398 6.50159582 6.50344173 6.57670425]
