 
:: initializing oneAPI environment ...
   slurm_script: BASH_VERSION = 4.2.46(1)-release
   args: Using "$@" for setvars.sh arguments: --force
:: advisor -- latest
:: ccl -- latest
:: clck -- latest
:: compiler -- latest
:: dal -- latest
:: debugger -- latest
:: dev-utilities -- latest
:: dnnl -- latest
:: dpcpp-ct -- latest
:: dpl -- latest
:: inspector -- latest
:: intelpython -- latest
:: ipp -- latest
:: ippcp -- latest
:: ipp -- latest
:: itac -- latest
:: mkl -- latest
:: mpi -- latest
:: tbb -- latest
:: vpl -- latest
:: vtune -- latest
:: oneAPI environment initialized ::
 
SLURM_CPUS_PER_TASK = 28
SLURM_MEM_PER_NODE = 256000
#INFO: **** input file is /home/yangjunjie/work/py-ch3-cl/work/step_-13/main.py ****
import sys
import pyscf
from pyscf import tdscf

def main(xyz_file, basis="631g*", xc="b3lyp", output="ene.out"):
    xyz = None

    with open(xyz_file, "r") as xyz:
        xyz = xyz.readlines()[2:]
        xyz = "".join(xyz)

    mol = pyscf.gto.Mole()
    mol.atom = xyz
    mol.basis = basis
    mol.verbose = 5
    mol.build()

    if xc is not None and xc != "hf":
        mf = pyscf.scf.RKS(mol)
        mf.xc = xc
        mf.kernel()
    else:
        mf = pyscf.scf.RHF(mol)
        mf.kernel()

    ene_mf = mf.e_tot

    tda = pyscf.tdscf.TDA(mf)
    tda.nstates = 10
    tda.kernel()
    ene_tda = tda.e[:5]
    dip_tda = tda.transition_dipole()[:5]

    rpa = pyscf.tdscf.RPA(mf)
    rpa.nstates = 10
    rpa.kernel()
    ene_rpa = rpa.e[:5]
    dip_rpa = rpa.transition_dipole()[:5]

    with open(output, "w") as f:
        f.write(f"RKS energy: {ene_mf: 12.8f}\n")
        f.write("TDA results:\n")
        for i, (ene, dip) in enumerate(zip(ene_tda, dip_tda)):
            f.write(f" {i:2d} {ene: 12.8f} {dip[0]: 12.8f} {dip[1]: 12.8f} {dip[2]: 12.8f}\n")
        
        f.write("\nRPA results:\n")
        for i, (ene, dip) in enumerate(zip(ene_rpa, dip_rpa)):
            f.write(f" {i:2d} {ene: 12.8f} {dip[0]: 12.8f} {dip[1]: 12.8f} {dip[2]: 12.8f}\n")

if __name__ == "__main__":
    xyz = sys.argv[1]
    main(xyz, basis="631g*", xc="b3lyp", output="out.log")
#INFO: ******************** input file end ********************


System: uname_result(system='Linux', node='pauling004', release='3.10.0-327.36.3.el7.x86_64', version='#1 SMP Thu Oct 20 04:56:07 EDT 2016', machine='x86_64')  Threads 28
Python 3.9.7 (default, Oct 27 2021, 01:23:21) 
[GCC 9.3.0]
numpy 1.21.2  scipy 1.6.2
Date: Tue Sep 27 23:10:07 2022
PySCF version 2.0.1
PySCF path  /home/yangjunjie/packages/pyscf/pyscf-main
GIT ORIG_HEAD 14b880cdc4bf7bb64f3989a147c0b04622efc498
GIT HEAD (branch master) 9d5b5bd309d1cc55fbd1a0ec76e26b5b0c7f76af

[ENV] PYSCF_MAX_MEMORY 256000
[ENV] PYSCF_TMPDIR /scratch/global/yangjunjie/
[CONFIG] conf_file /home/yangjunjie/.pyscf_conf.py
[INPUT] verbose = 5
[INPUT] max_memory = 256000 
[INPUT] num. atoms = 16
[INPUT] num. electrons = 68
[INPUT] charge = 0
[INPUT] spin (= nelec alpha-beta = 2S) = 0
[INPUT] symmetry False subgroup None
[INPUT] Mole.unit = angstrom
[INPUT]  1 C      0.000000010000   1.163930800000   1.138439610000 AA    0.000000018897   2.199510439946   2.151339072257 Bohr
[INPUT]  2 C      0.000000000000   1.190052170000   2.492485410000 AA    0.000000000000   2.248872675244   4.710114794374 Bohr
[INPUT]  3 C     -0.000000010000  -0.013390060000   3.206659780000 AA   -0.000000018897  -0.025303546191   6.059708758858 Bohr
[INPUT]  4 C     -0.000000010000  -1.201877150000   2.466854780000 AA   -0.000000018897  -2.271218648873   4.661679923274 Bohr
[INPUT]  5 C      0.000000000000  -1.147026730000   1.116090730000 AA    0.000000000000  -2.167566377255   2.109105809866 Bohr
[INPUT]  6 N      0.000000010000   0.013691120000   0.432449270000 AA    0.000000018897   0.025872467139   0.817210683068 Bohr
[INPUT]  7 C      0.000000000000   0.003065410000  -2.118031950000 AA    0.000000000000   0.005792785360  -4.002500308578 Bohr
[INPUT]  8 H      0.000000020000   2.066118310000   0.522938500000 AA    0.000000037795   3.904397746849   0.988210544991 Bohr
[INPUT]  9 H      0.000000000000   2.153782300000   3.027899600000 AA    0.000000000000   4.070058678936   5.721900976680 Bohr
[INPUT] 10 H     -0.000000010000  -0.023991440000   4.279557260000 AA   -0.000000018897  -0.045337250934   8.087191155794 Bohr
[INPUT] 11 H     -0.000000020000  -2.176809360000   2.985035200000 AA   -0.000000037795  -4.113573515790   5.640899000186 Bohr
[INPUT] 12 H      0.000000000000  -2.038334920000   0.479848580000 AA    0.000000000000  -3.851894748937   0.906782397461 Bohr
[INPUT] 13 H     -0.000000030000   1.032771670000  -1.781055100000 AA   -0.000000056692   1.951655605510  -3.365706351760 Bohr
[INPUT] 14 H     -0.890703050000  -0.504443150000  -1.767494400000 AA   -1.683184822815  -0.953259398913  -3.340080342702 Bohr
[INPUT] 15 H      0.890703070000  -0.504443110000  -1.767494410000 AA    1.683184860609  -0.953259323324  -3.340080361600 Bohr
[INPUT] 16 Cl    -0.000000010000  -0.004833260000  -3.940437360000 AA   -0.000000018897  -0.009133537689  -7.446347421404 Bohr
[INPUT] ---------------- BASIS SET ---------------- 
[INPUT] l, kappa, [nprim/nctr], expnt,             c_1 c_2 ...
[INPUT] N
[INPUT] 0    0    [6    /1   ]  4173.511          0.0018348
                                627.4579          0.013995
                                142.9021          0.068587
                                40.23433          0.232241
                                12.82021          0.46907
                                4.390437          0.360455
[INPUT] 0    0    [3    /1   ]  11.626358         -0.114961
                                2.71628           -0.169118
                                0.772218          1.145852
[INPUT] 0    0    [1    /1   ]  0.2120313            1
[INPUT] 1    0    [3    /1   ]  11.626358         0.06758
                                2.71628           0.323907
                                0.772218          0.740895
[INPUT] 1    0    [1    /1   ]  0.2120313            1
[INPUT] 2    0    [1    /1   ]  0.8                  1
[INPUT] H
[INPUT] 0    0    [3    /1   ]  18.731137         0.0334946
                                2.8253937         0.23472695
                                0.6401217         0.81375733
[INPUT] 0    0    [1    /1   ]  0.1612778            1
[INPUT] Cl
[INPUT] 0    0    [6    /1   ]  25180.1           0.001833
                                3780.35           0.014034
                                860.474           0.069097
                                242.145           0.237452
                                77.3349           0.483034
                                26.247            0.339856
[INPUT] 0    0    [6    /1   ]  491.765           -0.0022974
                                116.984           -0.030714
                                37.4153           -0.112528
                                13.7834           0.045016
                                5.45215           0.589353
                                2.22588           0.465206
[INPUT] 0    0    [3    /1   ]  3.18649           -0.25183
                                1.14427           0.061589
                                0.420377          1.06018
[INPUT] 0    0    [1    /1   ]  0.142657             1
[INPUT] 1    0    [6    /1   ]  491.765           0.0039894
                                116.984           0.030318
                                37.4153           0.12988
                                13.7834           0.327951
                                5.45215           0.453527
                                2.22588           0.252154
[INPUT] 1    0    [3    /1   ]  3.18649           -0.014299
                                1.14427           0.323572
                                0.420377          0.743507
[INPUT] 1    0    [1    /1   ]  0.142657             1
[INPUT] 2    0    [1    /1   ]  0.75                 1
[INPUT] C
[INPUT] 0    0    [6    /1   ]  3047.5249         0.0018347
                                457.36951         0.0140373
                                103.94869         0.0688426
                                29.210155         0.2321844
                                9.286663          0.4679413
                                3.163927          0.362312
[INPUT] 0    0    [3    /1   ]  7.8682724         -0.1193324
                                1.8812885         -0.1608542
                                0.5442493         1.1434564
[INPUT] 0    0    [1    /1   ]  0.1687144            1
[INPUT] 1    0    [3    /1   ]  7.8682724         0.0689991
                                1.8812885         0.316424
                                0.5442493         0.7443083
[INPUT] 1    0    [1    /1   ]  0.1687144            1
[INPUT] 2    0    [1    /1   ]  0.8                  1

nuclear repulsion = 377.252035872427
number of shells = 66
number of NR pGTOs = 272
number of NR cGTOs = 132
basis = 631g*
ecp = {}
CPU time:         0.39


******** <class 'pyscf.dft.rks.RKS'> ********
method = RKS
initial guess = minao
damping factor = 0
level_shift factor = 0
DIIS = <class 'pyscf.scf.diis.CDIIS'>
diis_start_cycle = 1
diis_space = 8
SCF conv_tol = 1e-09
SCF conv_tol_grad = None
SCF max_cycles = 50
direct_scf = True
direct_scf_tol = 1e-13
chkfile to save SCF result = /scratch/global/yangjunjie/tmplr86qubz
max_memory 256000 MB (current use 81 MB)
XC library pyscf.dft.libxc version 5.2.0
    S. Lehtola, C. Steigemann, M. J. Oliveira, and M. A. Marques, SoftwareX 7, 1 (2018)
XC functionals = b3lyp
    P. A. M. Dirac, Math. Proc. Cambridge Philos. Soc. 26, 376 (1930)
    F. Bloch, Z. Phys. 57, 545 (1929)
    A. D. Becke, Phys. Rev. A 38, 3098 (1988)
    C. Lee, W. Yang, and R. G. Parr, Phys. Rev. B 37, 785 (1988)
    B. Miehlich, A. Savin, H. Stoll, and H. Preuss, Chem. Phys. Lett. 157, 200 (1989)
    S. H. Vosko, L. Wilk, and M. Nusair, Can. J. Phys. 58, 1200 (1980)
radial grids: 
    Treutler-Ahlrichs [JCP 102, 346 (1995); DOI:10.1063/1.469408] (M4) radial grids
    
becke partition: Becke, JCP 88, 2547 (1988); DOI:10.1063/1.454033
pruning grids: <function nwchem_prune at 0x7fd1cd2d8ee0>
grids dens level: 3
symmetrized grids: False
atomic radii adjust function: <function treutler_atomic_radii_adjust at 0x7fd1cd2d8e50>
small_rho_cutoff = 1e-07
Set gradient conv threshold to 3.16228e-05
atom C rad-grids = 75, ang-grids = [ 50  50  50  50  50  50  50  50  50  50  50  50  50  50  50  50  50  50
  50  50  50  50  50  86  86  86  86  86  86  86  86  86  86 266 266 266
 266 266 266 266 302 302 302 302 302 302 302 302 302 302 302 302 302 302
 302 302 302 302 302 302 266 266 266 266 266 266 266 266 266 266 266 266
 266 266 266]
atom N rad-grids = 75, ang-grids = [ 50  50  50  50  50  50  50  50  50  50  50  50  50  50  50  50  50  50
  50  50  50  50  50  86  86  86  86  86  86  86  86  86 266 266 266 266
 266 266 266 302 302 302 302 302 302 302 302 302 302 302 302 302 302 302
 302 302 302 302 266 266 266 266 266 266 266 266 266 266 266 266 266 266
 266 266 266]
atom H rad-grids = 50, ang-grids = [ 50  50  50  50  50  50  50  50  50  50  50  50  50  50  86  86  86  86
 266 266 266 266 302 302 302 302 302 302 302 302 302 302 302 302 302 266
 266 266 266 266 266 266 266 266 266 266 266 266 266 266]
atom Cl rad-grids = 80, ang-grids = [ 50  50  50  50  50  50  50  50  50  50  50  50  50  50  50  50  50  50
  50  50  50  50  50  50  86  86  86  86  86  86  86  86  86  86  86  86
  86 350 350 350 350 350 350 350 350 350 434 434 434 434 434 434 434 434
 434 434 434 434 434 434 434 434 434 434 350 350 350 350 350 350 350 350
 350 350 350 350 350 350 350 350]
tot grids = 196530
Drop grids 33201
    CPU time for setting up grids      3.24 sec, wall time      0.15 sec
nelec by numeric integration = 67.97633026759362
    CPU time for vxc      6.01 sec, wall time      0.22 sec
E1 = -1767.703805234913  Ecoul = 711.7866816708486  Exc = -70.38022551093155
init E= -749.045313202569
cond(S) = 6717.79956341953
    CPU time for initialize scf     16.27 sec, wall time      0.69 sec
  HOMO = -0.302683458475491  LUMO = -0.105781854446035
  mo_energy =
[-1.01597196e+02 -1.44023006e+01 -1.02934990e+01 -1.02931149e+01
 -1.02898138e+01 -1.02890547e+01 -1.02879811e+01 -1.02878581e+01
 -9.53814979e+00 -7.29404589e+00 -7.29284455e+00 -7.29284390e+00
 -1.09781544e+00 -9.36700282e-01 -9.27592771e-01 -8.94465207e-01
 -7.59099958e-01 -7.13312457e-01 -7.02615073e-01 -5.78193509e-01
 -5.31917543e-01 -5.02031256e-01 -4.74186131e-01 -4.73298250e-01
 -4.64932861e-01 -4.62157258e-01 -4.36161923e-01 -4.34143110e-01
 -3.84795353e-01 -3.44192562e-01 -3.43040895e-01 -3.20654122e-01
 -3.02740193e-01 -3.02683458e-01 -1.05781854e-01 -7.11987667e-02
 -3.39145815e-02  4.83162371e-02  7.16436886e-02  7.60521433e-02
  8.50667166e-02  1.08604120e-01  1.22018644e-01  1.23775196e-01
  1.42371370e-01  1.64950915e-01  1.93451662e-01  2.35999429e-01
  2.63036409e-01  2.76451448e-01  3.59640769e-01  3.93207574e-01
  4.00962518e-01  4.14883393e-01  4.14941232e-01  4.27463301e-01
  4.62918556e-01  4.74879798e-01  4.87213043e-01  5.10446438e-01
  5.18285053e-01  5.35374305e-01  5.36823520e-01  5.54122131e-01
  5.54949563e-01  5.57432878e-01  5.70135414e-01  6.09423751e-01
  6.34746810e-01  6.41290825e-01  6.88622197e-01  7.60201180e-01
  7.67562456e-01  7.83554566e-01  7.89383704e-01  7.90650903e-01
  7.94310935e-01  8.00282739e-01  8.25835258e-01  8.40753415e-01
  8.49709115e-01  8.65450594e-01  8.77830372e-01  8.99090950e-01
  9.10276499e-01  9.32050128e-01  9.76239013e-01  1.00976734e+00
  1.04743263e+00  1.08158490e+00  1.12769128e+00  1.15644443e+00
  1.16883978e+00  1.17755793e+00  1.30811121e+00  1.34241942e+00
  1.40248972e+00  1.41142652e+00  1.42104819e+00  1.44808095e+00
  1.45341055e+00  1.48581031e+00  1.62427214e+00  1.62643096e+00
  1.65302944e+00  1.70035034e+00  1.75578182e+00  1.77528518e+00
  1.85537493e+00  1.87644501e+00  1.98797872e+00  2.06691892e+00
  2.08218565e+00  2.09455036e+00  2.11176645e+00  2.12563713e+00
  2.13394118e+00  2.17002693e+00  2.18438399e+00  2.22303019e+00
  2.25680919e+00  2.30705187e+00  2.47640415e+00  2.48954467e+00
  2.60718120e+00  2.61113569e+00  2.62799844e+00  2.66024693e+00
  2.68670044e+00  2.69589112e+00  2.96348524e+00  3.32171689e+00]
nelec by numeric integration = 68.00003094611012
    CPU time for vxc      5.83 sec, wall time      0.21 sec
E1 = -1775.9040791135758  Ecoul = 721.3958146118032  Exc = -70.82310115760151
cycle= 1 E= -748.079329786947  delta_E= 0.966  |g|= 0.38  |ddm|= 3.95
    CPU time for cycle= 1      6.31 sec, wall time      0.23 sec
  HOMO = -0.197594204008006  LUMO = 0.00369873413370513
  mo_energy =
[-1.01350969e+02 -1.42001983e+01 -1.01776883e+01 -1.01760756e+01
 -1.01456945e+01 -1.01442699e+01 -1.00933603e+01 -1.00926069e+01
 -9.30731601e+00 -7.06811847e+00 -7.05826805e+00 -7.05825930e+00
 -8.92351357e-01 -7.71376364e-01 -7.59705764e-01 -7.35268404e-01
 -6.17261168e-01 -6.04568697e-01 -5.95096517e-01 -5.13953132e-01
 -4.49769721e-01 -4.37744301e-01 -4.12774389e-01 -3.99422111e-01
 -3.97281650e-01 -3.84628651e-01 -3.63730928e-01 -3.36080276e-01
 -3.31215269e-01 -2.46925359e-01 -2.41643468e-01 -2.23479757e-01
 -2.22634785e-01 -1.97594204e-01  3.69873413e-03  2.39375371e-02
  8.17074664e-02  1.09578924e-01  1.29233188e-01  1.38255685e-01
  1.59531797e-01  1.65246770e-01  1.79981096e-01  1.83093835e-01
  1.88313054e-01  2.17792908e-01  2.73733938e-01  3.09212596e-01
  3.51620593e-01  3.54151801e-01  4.62286551e-01  4.71333672e-01
  4.88049358e-01  5.17054958e-01  5.17446579e-01  5.23065471e-01
  5.33207741e-01  5.61499397e-01  5.73191072e-01  6.02104110e-01
  6.02407526e-01  6.03253903e-01  6.19660452e-01  6.20188833e-01
  6.28803645e-01  6.29158940e-01  6.70424554e-01  6.79618382e-01
  7.13706886e-01  7.27661653e-01  7.80656156e-01  8.34528038e-01
  8.45913491e-01  8.54619327e-01  8.70161135e-01  8.95867580e-01
  9.14467869e-01  9.24207510e-01  9.28748198e-01  9.48692349e-01
  9.55081375e-01  9.81719578e-01  9.83781021e-01  1.01105673e+00
  1.02489318e+00  1.02690656e+00  1.06051692e+00  1.09899602e+00
  1.11462667e+00  1.14615368e+00  1.18776434e+00  1.24041904e+00
  1.26587188e+00  1.28844139e+00  1.41197642e+00  1.41303433e+00
  1.47735523e+00  1.50917394e+00  1.52403491e+00  1.54523804e+00
  1.56699117e+00  1.58241743e+00  1.74260709e+00  1.74432153e+00
  1.75233514e+00  1.79011664e+00  1.87689021e+00  1.88791576e+00
  1.95963703e+00  1.97955870e+00  2.10590514e+00  2.18676388e+00
  2.18892458e+00  2.20800596e+00  2.21995621e+00  2.23744955e+00
  2.25200408e+00  2.28044420e+00  2.29398575e+00  2.34187176e+00
  2.36737838e+00  2.41736967e+00  2.58729768e+00  2.59751702e+00
  2.71683903e+00  2.74310560e+00  2.74493239e+00  2.78779493e+00
  2.81904148e+00  2.82165696e+00  3.09339162e+00  3.45242971e+00]
nelec by numeric integration = 68.00003067389916
    CPU time for vxc      6.12 sec, wall time      0.22 sec
E1 = -1768.1911478511274  Ecoul = 713.0919784599304  Exc = -70.23503020535294
cycle= 2 E= -748.082163724123  delta_E= -0.00283  |g|= 0.392  |ddm|= 0.975
    CPU time for cycle= 2      6.61 sec, wall time      0.24 sec
  HOMO = -0.261965935796545  LUMO = -0.0407355103034777
  mo_energy =
[-1.01468139e+02 -1.43623824e+01 -1.02157256e+01 -1.02152735e+01
 -1.02034236e+01 -1.02012345e+01 -1.02009784e+01 -1.01952808e+01
 -9.40255967e+00 -7.16532488e+00 -7.15575421e+00 -7.15574454e+00
 -9.57480900e-01 -8.13906000e-01 -8.08372684e-01 -7.78500656e-01
 -6.49806409e-01 -6.39515114e-01 -6.37471026e-01 -5.40102752e-01
 -4.90739912e-01 -4.73751836e-01 -4.43790080e-01 -4.22190383e-01
 -4.20287196e-01 -4.17197502e-01 -4.07798618e-01 -3.74310064e-01
 -3.67060353e-01 -2.95991231e-01 -2.79463710e-01 -2.66522992e-01
 -2.62443739e-01 -2.61965936e-01 -4.07355103e-02 -1.16425971e-02
  5.97755270e-02  8.85510099e-02  1.17759541e-01  1.24326532e-01
  1.40106996e-01  1.47353927e-01  1.56453710e-01  1.74371417e-01
  1.74512860e-01  2.06573426e-01  2.43438026e-01  2.84068261e-01
  3.18011554e-01  3.26441016e-01  4.38475186e-01  4.40268555e-01
  4.54669634e-01  4.88741892e-01  4.89043924e-01  4.89139598e-01
  5.02470600e-01  5.26117406e-01  5.49172059e-01  5.72544696e-01
  5.73099534e-01  5.78093187e-01  5.89262049e-01  5.95107152e-01
  5.96468488e-01  6.01633809e-01  6.28444721e-01  6.49485263e-01
  6.81660898e-01  6.97294315e-01  7.47815375e-01  8.10043386e-01
  8.21627253e-01  8.32048088e-01  8.40814352e-01  8.48607212e-01
  8.84831379e-01  8.88848279e-01  9.03726535e-01  9.14819286e-01
  9.25846727e-01  9.40541295e-01  9.42407285e-01  9.84388046e-01
  9.84774186e-01  9.90883866e-01  1.02149705e+00  1.07317732e+00
  1.09000423e+00  1.12032284e+00  1.16539851e+00  1.20797315e+00
  1.23090107e+00  1.23944098e+00  1.36756280e+00  1.38113514e+00
  1.45488887e+00  1.46745118e+00  1.47423718e+00  1.50434377e+00
  1.51199175e+00  1.54412066e+00  1.70657414e+00  1.71535741e+00
  1.71616278e+00  1.75414044e+00  1.82823226e+00  1.83670956e+00
  1.91696915e+00  1.94109288e+00  2.06031173e+00  2.13721406e+00
  2.14427185e+00  2.15914140e+00  2.17629401e+00  2.18978897e+00
  2.22086348e+00  2.25816084e+00  2.27123698e+00  2.29124463e+00
  2.32367445e+00  2.36852922e+00  2.53903541e+00  2.55495072e+00
  2.67175525e+00  2.68984468e+00  2.69695206e+00  2.73994537e+00
  2.76529779e+00  2.77024270e+00  3.04067122e+00  3.40287714e+00]
nelec by numeric integration = 68.00003003332839
    CPU time for vxc      5.91 sec, wall time      0.21 sec
E1 = -1771.9504717693828  Ecoul = 717.087392312535  Exc = -70.50927904040047
cycle= 3 E= -748.120322624821  delta_E= -0.0382  |g|= 0.0908  |ddm|= 0.494
    CPU time for cycle= 3      6.41 sec, wall time      0.23 sec
  HOMO = -0.25809859386538  LUMO = -0.0404210837530467
  mo_energy =
[-1.01489711e+02 -1.43259932e+01 -1.02276350e+01 -1.02269081e+01
 -1.02219677e+01 -1.02089959e+01 -1.02086060e+01 -1.02052145e+01
 -9.42055471e+00 -7.18359850e+00 -7.17414625e+00 -7.17413593e+00
 -9.49619595e-01 -8.17593625e-01 -8.13834630e-01 -7.81572634e-01
 -6.54482563e-01 -6.43953544e-01 -6.36945382e-01 -5.43112211e-01
 -4.92714234e-01 -4.76068670e-01 -4.46381882e-01 -4.23633386e-01
 -4.23146304e-01 -4.19467937e-01 -4.07296233e-01 -3.80703508e-01
 -3.68971508e-01 -2.94970150e-01 -2.82776000e-01 -2.70063870e-01
 -2.69353820e-01 -2.58098594e-01 -4.04210838e-02 -1.42726052e-02
  5.62582585e-02  8.61899184e-02  1.16663736e-01  1.23223487e-01
  1.39088540e-01  1.46688916e-01  1.55128793e-01  1.73481459e-01
  1.74381041e-01  2.06085245e-01  2.43275185e-01  2.81724118e-01
  3.18945487e-01  3.24576155e-01  4.31560273e-01  4.39403152e-01
  4.52888628e-01  4.83541772e-01  4.83880200e-01  4.86793299e-01
  4.99795746e-01  5.25946334e-01  5.46642803e-01  5.69143503e-01
  5.70580302e-01  5.75646014e-01  5.88317186e-01  5.91641570e-01
  5.92592171e-01  5.97177225e-01  6.31688504e-01  6.47110000e-01
  6.78783668e-01  6.95452743e-01  7.48079312e-01  8.07553239e-01
  8.16808435e-01  8.29677604e-01  8.38813815e-01  8.56596531e-01
  8.79924593e-01  8.83781207e-01  8.99918689e-01  9.10891944e-01
  9.20234908e-01  9.33736303e-01  9.36864071e-01  9.79266023e-01
  9.80237898e-01  9.86618022e-01  1.02470849e+00  1.07068388e+00
  1.08770208e+00  1.12003657e+00  1.16282386e+00  1.20784944e+00
  1.22867294e+00  1.23750914e+00  1.36501463e+00  1.38306455e+00
  1.45531352e+00  1.46225139e+00  1.47140980e+00  1.50356814e+00
  1.51589423e+00  1.54832559e+00  1.70834746e+00  1.71166915e+00
  1.71272901e+00  1.75500411e+00  1.82495045e+00  1.83840508e+00
  1.91482023e+00  1.93820755e+00  2.05631709e+00  2.13562997e+00
  2.14196439e+00  2.15683585e+00  2.17374943e+00  2.18967942e+00
  2.21708878e+00  2.25556562e+00  2.26869697e+00  2.29007895e+00
  2.32031127e+00  2.37004310e+00  2.53905640e+00  2.55183389e+00
  2.67017498e+00  2.68870036e+00  2.69626567e+00  2.73672513e+00
  2.76490392e+00  2.76843355e+00  3.04141660e+00  3.40080507e+00]
nelec by numeric integration = 68.00003001470779
    CPU time for vxc      5.80 sec, wall time      0.21 sec
E1 = -1772.0620918122333  Ecoul = 717.2074080960126  Exc = -70.51904263404967
cycle= 4 E= -748.121690477843  delta_E= -0.00137  |g|= 0.0446  |ddm|= 0.111
    CPU time for cycle= 4      6.32 sec, wall time      0.23 sec
  HOMO = -0.262484340799899  LUMO = -0.0395282271048071
  mo_energy =
[-1.01486355e+02 -1.43371326e+01 -1.02274811e+01 -1.02271203e+01
 -1.02137955e+01 -1.02074202e+01 -1.02018508e+01 -1.02017697e+01
 -9.41830160e+00 -7.18118239e+00 -7.17181777e+00 -7.17180736e+00
 -9.51045075e-01 -8.16664780e-01 -8.11398402e-01 -7.79670358e-01
 -6.55388697e-01 -6.42469158e-01 -6.36390919e-01 -5.41496692e-01
 -4.91054982e-01 -4.74555344e-01 -4.44953953e-01 -4.24830056e-01
 -4.21776334e-01 -4.20980884e-01 -4.07035596e-01 -3.80951857e-01
 -3.67527822e-01 -2.93761997e-01 -2.80689552e-01 -2.70171299e-01
 -2.69437164e-01 -2.62484341e-01 -3.95282271e-02 -1.25390758e-02
  5.58233768e-02  8.73750729e-02  1.16627084e-01  1.22760519e-01
  1.40279697e-01  1.46600010e-01  1.56093840e-01  1.72752610e-01
  1.73923864e-01  2.05394456e-01  2.44038068e-01  2.83728807e-01
  3.19362104e-01  3.25939760e-01  4.31411318e-01  4.39425654e-01
  4.53863600e-01  4.83307865e-01  4.83631184e-01  4.86940738e-01
  5.01772329e-01  5.26457440e-01  5.46002528e-01  5.71238729e-01
  5.72330066e-01  5.75446019e-01  5.89298092e-01  5.94398848e-01
  5.94796833e-01  6.00099339e-01  6.29832756e-01  6.48536628e-01
  6.81412033e-01  6.95070839e-01  7.46476784e-01  8.09185470e-01
  8.20354051e-01  8.30370133e-01  8.39366401e-01  8.53198073e-01
  8.79634352e-01  8.83129891e-01  9.00415263e-01  9.12988429e-01
  9.20406065e-01  9.33383661e-01  9.37471090e-01  9.78541047e-01
  9.81507641e-01  9.86156037e-01  1.02330515e+00  1.07057733e+00
  1.08853682e+00  1.12062774e+00  1.16503606e+00  1.20856883e+00
  1.22742426e+00  1.23934233e+00  1.36744484e+00  1.38326398e+00
  1.45548144e+00  1.46531603e+00  1.47452061e+00  1.50382392e+00
  1.51496162e+00  1.54502201e+00  1.70837425e+00  1.70983521e+00
  1.71111108e+00  1.75524360e+00  1.82767724e+00  1.83871692e+00
  1.91765741e+00  1.94018366e+00  2.05904919e+00  2.13744231e+00
  2.14398004e+00  2.15960607e+00  2.17517756e+00  2.19046744e+00
  2.21566917e+00  2.25362529e+00  2.26683776e+00  2.29168183e+00
  2.32232460e+00  2.36985896e+00  2.54027352e+00  2.55410348e+00
  2.67183613e+00  2.69006428e+00  2.69674075e+00  2.73845871e+00
  2.76646109e+00  2.76965411e+00  3.04125799e+00  3.40212112e+00]
nelec by numeric integration = 68.00003014199741
    CPU time for vxc      5.87 sec, wall time      0.22 sec
E1 = -1772.0407547393195  Ecoul = 717.1841958996888  Exc = -70.51763652273362
cycle= 5 E= -748.122159489937  delta_E= -0.000469  |g|= 0.01  |ddm|= 0.0519
    CPU time for cycle= 5      6.36 sec, wall time      0.23 sec
  HOMO = -0.261240421809496  LUMO = -0.0390309281252272
  mo_energy =
[-1.01482769e+02 -1.43354363e+01 -1.02239101e+01 -1.02236204e+01
 -1.02148218e+01 -1.02046179e+01 -1.02030257e+01 -1.02029059e+01
 -9.41554759e+00 -7.17833276e+00 -7.16898787e+00 -7.16897735e+00
 -9.49615829e-01 -8.15729930e-01 -8.11271982e-01 -7.78812869e-01
 -6.54300202e-01 -6.41901745e-01 -6.35724462e-01 -5.41088810e-01
 -4.90521450e-01 -4.74442758e-01 -4.44352796e-01 -4.23858549e-01
 -4.21556163e-01 -4.20167157e-01 -4.06227026e-01 -3.79816511e-01
 -3.67281845e-01 -2.93556685e-01 -2.80036034e-01 -2.69159825e-01
 -2.68441945e-01 -2.61240422e-01 -3.90309281e-02 -1.19472434e-02
  5.68281941e-02  8.75286658e-02  1.17109971e-01  1.23234976e-01
  1.40781093e-01  1.46889865e-01  1.56201678e-01  1.73421321e-01
  1.74090738e-01  2.06016274e-01  2.44552052e-01  2.83775311e-01
  3.19969056e-01  3.26193138e-01  4.32254396e-01  4.39955346e-01
  4.54458086e-01  4.84024674e-01  4.84350806e-01  4.87620339e-01
  5.02239856e-01  5.26968170e-01  5.46694446e-01  5.71515230e-01
  5.72819015e-01  5.76185285e-01  5.90223888e-01  5.94413105e-01
  5.94796359e-01  6.00054419e-01  6.30780220e-01  6.49056390e-01
  6.81251949e-01  6.96219140e-01  7.47627293e-01  8.09483716e-01
  8.19868373e-01  8.31007264e-01  8.39970880e-01  8.54302749e-01
  8.80652391e-01  8.84242270e-01  9.00921908e-01  9.13145981e-01
  9.21270013e-01  9.34519001e-01  9.38208944e-01  9.79697762e-01
  9.82081214e-01  9.87053751e-01  1.02419588e+00  1.07130602e+00
  1.08905496e+00  1.12115303e+00  1.16500765e+00  1.20891396e+00
  1.22835149e+00  1.23989483e+00  1.36779951e+00  1.38357713e+00
  1.45604312e+00  1.46565763e+00  1.47447295e+00  1.50512389e+00
  1.51590055e+00  1.54600505e+00  1.70911291e+00  1.71115726e+00
  1.71238054e+00  1.75601892e+00  1.82795762e+00  1.83927645e+00
  1.91754422e+00  1.94079853e+00  2.05956978e+00  2.13801314e+00
  2.14457015e+00  2.15962340e+00  2.17609917e+00  2.19125186e+00
  2.21700969e+00  2.25480734e+00  2.26801281e+00  2.29195922e+00
  2.32302016e+00  2.37088075e+00  2.54078034e+00  2.55466053e+00
  2.67236670e+00  2.69059515e+00  2.69758244e+00  2.73923614e+00
  2.76678094e+00  2.77048539e+00  3.04226974e+00  3.40278404e+00]
nelec by numeric integration = 68.00003008709443
    CPU time for vxc      5.84 sec, wall time      0.21 sec
E1 = -1771.9709642969779  Ecoul = 717.1099094406551  Exc = -70.5131643800985
cycle= 6 E= -748.122183363994  delta_E= -2.39e-05  |g|= 0.00432  |ddm|= 0.0146
    CPU time for cycle= 6      6.35 sec, wall time      0.23 sec
  HOMO = -0.261418808435427  LUMO = -0.0390475246457742
  mo_energy =
[-1.01482866e+02 -1.43356170e+01 -1.02250901e+01 -1.02247341e+01
 -1.02141018e+01 -1.02048271e+01 -1.02027140e+01 -1.02025750e+01
 -9.41566894e+00 -7.17844889e+00 -7.16910669e+00 -7.16909615e+00
 -9.50072211e-01 -8.15853938e-01 -8.11233312e-01 -7.79065667e-01
 -6.54362897e-01 -6.41961361e-01 -6.35833291e-01 -5.41141121e-01
 -4.90626716e-01 -4.74413724e-01 -4.44543142e-01 -4.24001222e-01
 -4.21493036e-01 -4.20276400e-01 -4.06428929e-01 -3.79941975e-01
 -3.67300020e-01 -2.93521719e-01 -2.80242484e-01 -2.69288206e-01
 -2.68568102e-01 -2.61418808e-01 -3.90475246e-02 -1.21032022e-02
  5.67110940e-02  8.75741172e-02  1.17036540e-01  1.23186016e-01
  1.40722663e-01  1.46877428e-01  1.56261755e-01  1.73314265e-01
  1.74113133e-01  2.05907980e-01  2.44444516e-01  2.83849946e-01
  3.19841900e-01  3.26193795e-01  4.32210374e-01  4.39883074e-01
  4.54309611e-01  4.83912123e-01  4.84236779e-01  4.87433648e-01
  5.02129075e-01  5.26898220e-01  5.46605223e-01  5.71498933e-01
  5.72687602e-01  5.76069474e-01  5.89943009e-01  5.94574704e-01
  5.94762918e-01  6.00128318e-01  6.30621791e-01  6.48924202e-01
  6.81371993e-01  6.95973106e-01  7.47444084e-01  8.09428657e-01
  8.20103027e-01  8.30867494e-01  8.39872877e-01  8.54138631e-01
  8.80531863e-01  8.84101303e-01  9.00933707e-01  9.13211403e-01
  9.21178534e-01  9.34381048e-01  9.38142247e-01  9.79571344e-01
  9.82038287e-01  9.86954736e-01  1.02404333e+00  1.07121401e+00
  1.08896441e+00  1.12105473e+00  1.16505823e+00  1.20886964e+00
  1.22823002e+00  1.23977913e+00  1.36771185e+00  1.38356139e+00
  1.45593661e+00  1.46559874e+00  1.47453112e+00  1.50473371e+00
  1.51568520e+00  1.54590856e+00  1.70895714e+00  1.71099964e+00
  1.71222098e+00  1.75584214e+00  1.82792423e+00  1.83920807e+00
  1.91762795e+00  1.94060268e+00  2.05943077e+00  2.13788360e+00
  2.14439063e+00  2.15968915e+00  2.17584932e+00  2.19110441e+00
  2.21683757e+00  2.25466789e+00  2.26786969e+00  2.29200123e+00
  2.32282388e+00  2.37062132e+00  2.54069321e+00  2.55450475e+00
  2.67225460e+00  2.69053229e+00  2.69742841e+00  2.73905914e+00
  2.76679940e+00  2.77027501e+00  3.04206745e+00  3.40269114e+00]
nelec by numeric integration = 68.00003009710531
    CPU time for vxc      6.24 sec, wall time      0.22 sec
E1 = -1771.983475277745  Ecoul = 717.1228135050012  Exc = -70.5135623986038
cycle= 7 E= -748.12218829892  delta_E= -4.93e-06  |g|= 0.000609  |ddm|= 0.00424
    CPU time for cycle= 7      6.89 sec, wall time      0.25 sec
  HOMO = -0.261409581575409  LUMO = -0.0390490380800012
  mo_energy =
[-1.01483154e+02 -1.43356386e+01 -1.02250045e+01 -1.02246827e+01
 -1.02142867e+01 -1.02050112e+01 -1.02025850e+01 -1.02024723e+01
 -9.41589293e+00 -7.17868165e+00 -7.16933585e+00 -7.16932532e+00
 -9.50052737e-01 -8.15930807e-01 -8.11261782e-01 -7.79016724e-01
 -6.54416219e-01 -6.41955877e-01 -6.35817509e-01 -5.41134738e-01
 -4.90607745e-01 -4.74387896e-01 -4.44507710e-01 -4.24036908e-01
 -4.21519569e-01 -4.20317328e-01 -4.06418122e-01 -3.80024766e-01
 -3.67289964e-01 -2.93534474e-01 -2.80198681e-01 -2.69374419e-01
 -2.68652604e-01 -2.61409582e-01 -3.90490381e-02 -1.20695079e-02
  5.66530437e-02  8.75554481e-02  1.17046389e-01  1.23186312e-01
  1.40740271e-01  1.46879634e-01  1.56256801e-01  1.73294813e-01
  1.74114994e-01  2.05909390e-01  2.44449020e-01  2.83850883e-01
  3.19861789e-01  3.26205802e-01  4.32132892e-01  4.39891529e-01
  4.54321206e-01  4.83851158e-01  4.84175346e-01  4.87400508e-01
  5.02146264e-01  5.26905171e-01  5.46568368e-01  5.71505901e-01
  5.72722121e-01  5.76056409e-01  5.89953134e-01  5.94573697e-01
  5.94745348e-01  6.00127590e-01  6.30619692e-01  6.48955554e-01
  6.81374494e-01  6.95993634e-01  7.47439561e-01  8.09459295e-01
  8.20085978e-01  8.30896614e-01  8.39888515e-01  8.54137685e-01
  8.80466372e-01  8.84026527e-01  9.00905151e-01  9.13193383e-01
  9.21130169e-01  9.34296959e-01  9.38095466e-01  9.79494147e-01
  9.82014712e-01  9.86908818e-01  1.02405574e+00  1.07118397e+00
  1.08897409e+00  1.12105626e+00  1.16506590e+00  1.20888559e+00
  1.22817737e+00  1.23979746e+00  1.36772861e+00  1.38356193e+00
  1.45595174e+00  1.46561676e+00  1.47454343e+00  1.50476962e+00
  1.51569732e+00  1.54590699e+00  1.70897192e+00  1.71092616e+00
  1.71215631e+00  1.75585401e+00  1.82793446e+00  1.83921623e+00
  1.91762501e+00  1.94064189e+00  2.05944968e+00  2.13790074e+00
  2.14442308e+00  2.15968603e+00  2.17588950e+00  2.19110923e+00
  2.21676865e+00  2.25460924e+00  2.26781348e+00  2.29199548e+00
  2.32286673e+00  2.37064333e+00  2.54069646e+00  2.55453520e+00
  2.67226832e+00  2.69054862e+00  2.69745201e+00  2.73909639e+00
  2.76679868e+00  2.77030776e+00  3.04209089e+00  3.40271318e+00]
nelec by numeric integration = 68.00003010340322
    CPU time for vxc      5.78 sec, wall time      0.21 sec
E1 = -1771.985566107854  Ecoul = 717.1250949569177  Exc = -70.51375311149518
cycle= 8 E= -748.122188390005  delta_E= -9.11e-08  |g|= 0.000198  |ddm|= 0.000761
    CPU time for cycle= 8      6.31 sec, wall time      0.23 sec
  HOMO = -0.261408473898465  LUMO = -0.0390399915225578
  mo_energy =
[-1.01483168e+02 -1.43356330e+01 -1.02249996e+01 -1.02246581e+01
 -1.02142212e+01 -1.02050031e+01 -1.02026251e+01 -1.02024947e+01
 -9.41589716e+00 -7.17868820e+00 -7.16934043e+00 -7.16932990e+00
 -9.50048318e-01 -8.15923763e-01 -8.11253654e-01 -7.79019101e-01
 -6.54412509e-01 -6.41951447e-01 -6.35816969e-01 -5.41128561e-01
 -4.90604871e-01 -4.74395176e-01 -4.44510911e-01 -4.24031834e-01
 -4.21507273e-01 -4.20311799e-01 -4.06414670e-01 -3.80023007e-01
 -3.67289774e-01 -2.93525656e-01 -2.80201724e-01 -2.69371804e-01
 -2.68649765e-01 -2.61408474e-01 -3.90399915e-02 -1.20723192e-02
  5.66558958e-02  8.75571516e-02  1.17045790e-01  1.23187002e-01
  1.40742328e-01  1.46878273e-01  1.56261158e-01  1.73298669e-01
  1.74116792e-01  2.05910044e-01  2.44452385e-01  2.83855455e-01
  3.19862888e-01  3.26205832e-01  4.32127884e-01  4.39892963e-01
  4.54321991e-01  4.83853269e-01  4.84177477e-01  4.87404188e-01
  5.02149025e-01  5.26907715e-01  5.46572604e-01  5.71507050e-01
  5.72719071e-01  5.76057704e-01  5.89959895e-01  5.94576270e-01
  5.94756525e-01  6.00132481e-01  6.30621646e-01  6.48953264e-01
  6.81376515e-01  6.95994619e-01  7.47443083e-01  8.09453975e-01
  8.20094537e-01  8.30893813e-01  8.39889356e-01  8.54140709e-01
  8.80470714e-01  8.84030619e-01  9.00908709e-01  9.13196856e-01
  9.21134225e-01  9.34300916e-01  9.38098322e-01  9.79495526e-01
  9.82018524e-01  9.86910882e-01  1.02405656e+00  1.07118661e+00
  1.08897276e+00  1.12105896e+00  1.16506649e+00  1.20888435e+00
  1.22817995e+00  1.23980045e+00  1.36773192e+00  1.38356587e+00
  1.45595201e+00  1.46562173e+00  1.47454374e+00  1.50477193e+00
  1.51570196e+00  1.54590951e+00  1.70897318e+00  1.71093332e+00
  1.71216302e+00  1.75585758e+00  1.82793892e+00  1.83922140e+00
  1.91762980e+00  1.94063895e+00  2.05945498e+00  2.13790418e+00
  2.14442282e+00  2.15969275e+00  2.17588891e+00  2.19111669e+00
  2.21677545e+00  2.25461568e+00  2.26781967e+00  2.29200349e+00
  2.32286397e+00  2.37064614e+00  2.54070319e+00  2.55453614e+00
  2.67227247e+00  2.69055186e+00  2.69745356e+00  2.73909531e+00
  2.76680644e+00  2.77030878e+00  3.04209405e+00  3.40271583e+00]
nelec by numeric integration = 68.00003010303158
    CPU time for vxc      5.90 sec, wall time      0.21 sec
E1 = -1771.9852689114693  Ecoul = 717.1247831196589  Exc = -70.51373847930438
cycle= 9 E= -748.122188398688  delta_E= -8.68e-09  |g|= 5.49e-05  |ddm|= 0.000184
    CPU time for cycle= 9      6.41 sec, wall time      0.23 sec
  HOMO = -0.261414965183798  LUMO = -0.039045750858516
  mo_energy =
[-1.01483134e+02 -1.43356432e+01 -1.02250010e+01 -1.02246723e+01
 -1.02142364e+01 -1.02049894e+01 -1.02026225e+01 -1.02025047e+01
 -9.41586869e+00 -7.17865937e+00 -7.16931141e+00 -7.16930088e+00
 -9.50054921e-01 -8.15915772e-01 -8.11255999e-01 -7.79023737e-01
 -6.54408480e-01 -6.41954682e-01 -6.35822180e-01 -5.41132844e-01
 -4.90610760e-01 -4.74397984e-01 -4.44514395e-01 -4.24030730e-01
 -4.21511049e-01 -4.20310048e-01 -4.06418819e-01 -3.80014032e-01
 -3.67294243e-01 -2.93531100e-01 -2.80205854e-01 -2.69359514e-01
 -2.68637971e-01 -2.61414965e-01 -3.90457509e-02 -1.20766637e-02
  5.66618324e-02  8.75571609e-02  1.17044394e-01  1.23185830e-01
  1.40737422e-01  1.46877202e-01  1.56258695e-01  1.73298596e-01
  1.74114017e-01  2.05909459e-01  2.44448795e-01  2.83851441e-01
  3.19858226e-01  3.26202367e-01  4.32138975e-01  4.39889987e-01
  4.54320586e-01  4.83861949e-01  4.84186239e-01  4.87408104e-01
  5.02145139e-01  5.26903658e-01  5.46574958e-01  5.71504062e-01
  5.72715800e-01  5.76058074e-01  5.89955635e-01  5.94572567e-01
  5.94752674e-01  6.00128333e-01  6.30618393e-01  6.48949817e-01
  6.81372834e-01  6.95991670e-01  7.47440736e-01  8.09451076e-01
  8.20090412e-01  8.30890878e-01  8.39886075e-01  8.54136478e-01
  8.80477834e-01  8.84039560e-01  9.00909177e-01  9.13196048e-01
  9.21139101e-01  9.34311983e-01  9.38103436e-01  9.79504694e-01
  9.82019262e-01  9.86915287e-01  1.02405254e+00  1.07118839e+00
  1.08897138e+00  1.12105582e+00  1.16506370e+00  1.20888103e+00
  1.22818496e+00  1.23979464e+00  1.36772669e+00  1.38356143e+00
  1.45594834e+00  1.46561645e+00  1.47453830e+00  1.50476678e+00
  1.51569552e+00  1.54590544e+00  1.70896823e+00  1.71093828e+00
  1.71216693e+00  1.75585318e+00  1.82793367e+00  1.83921548e+00
  1.91762501e+00  1.94063482e+00  2.05944960e+00  2.13789881e+00
  2.14441798e+00  2.15968669e+00  2.17588410e+00  2.19111057e+00
  2.21678047e+00  2.25461867e+00  2.26782252e+00  2.29199687e+00
  2.32285937e+00  2.37064029e+00  2.54069713e+00  2.55453133e+00
  2.67226704e+00  2.69054579e+00  2.69744767e+00  2.73909010e+00
  2.76679978e+00  2.77030344e+00  3.04208793e+00  3.40271000e+00]
nelec by numeric integration = 68.0000301028052
    CPU time for vxc      5.76 sec, wall time      0.21 sec
E1 = -1771.9851176265015  Ecoul = 717.1246188864376  Exc = -70.51372553185134
cycle= 10 E= -748.122188399488  delta_E= -8.01e-10  |g|= 2.03e-05  |ddm|= 9.37e-05
    CPU time for cycle= 10      6.25 sec, wall time      0.22 sec
  HOMO = -0.261415650233919  LUMO = -0.0390443134702286
  mo_energy =
[-1.01483149e+02 -1.43356466e+01 -1.02250039e+01 -1.02246582e+01
 -1.02142305e+01 -1.02049910e+01 -1.02026302e+01 -1.02024956e+01
 -9.41588063e+00 -7.17867151e+00 -7.16932357e+00 -7.16931304e+00
 -9.50053646e-01 -8.15919398e-01 -8.11255760e-01 -7.79021829e-01
 -6.54409622e-01 -6.41953328e-01 -6.35820690e-01 -5.41131045e-01
 -4.90608966e-01 -4.74396949e-01 -4.44512756e-01 -4.24031150e-01
 -4.21509816e-01 -4.20310855e-01 -4.06417685e-01 -3.80017149e-01
 -3.67292651e-01 -2.93529967e-01 -2.80204049e-01 -2.69364195e-01
 -2.68642460e-01 -2.61415650e-01 -3.90443135e-02 -1.20749952e-02
  5.66597850e-02  8.75569778e-02  1.17044815e-01  1.23186305e-01
  1.40738906e-01  1.46877244e-01  1.56259497e-01  1.73298525e-01
  1.74115915e-01  2.05909067e-01  2.44449762e-01  2.83852735e-01
  3.19859470e-01  3.26203342e-01  4.32136063e-01  4.39891130e-01
  4.54320480e-01  4.83858635e-01  4.84182888e-01  4.87405732e-01
  5.02146619e-01  5.26904663e-01  5.46573932e-01  5.71505114e-01
  5.72717222e-01  5.76058006e-01  5.89957493e-01  5.94573781e-01
  5.94754411e-01  6.00130034e-01  6.30618364e-01  6.48951232e-01
  6.81373898e-01  6.95992942e-01  7.47441267e-01  8.09452436e-01
  8.20091569e-01  8.30892265e-01  8.39887500e-01  8.54136242e-01
  8.80475230e-01  8.84036075e-01  9.00909032e-01  9.13196210e-01
  9.21137388e-01  9.34307739e-01  9.38101209e-01  9.79500994e-01
  9.82019417e-01  9.86913619e-01  1.02405307e+00  1.07118780e+00
  1.08897187e+00  1.12105696e+00  1.16506445e+00  1.20888161e+00
  1.22818239e+00  1.23979651e+00  1.36772852e+00  1.38356211e+00
  1.45594949e+00  1.46561863e+00  1.47453985e+00  1.50476910e+00
  1.51569651e+00  1.54590535e+00  1.70896916e+00  1.71093686e+00
  1.71216583e+00  1.75585455e+00  1.82793545e+00  1.83921659e+00
  1.91762631e+00  1.94063663e+00  2.05945183e+00  2.13790053e+00
  2.14441978e+00  2.15968832e+00  2.17588599e+00  2.19111264e+00
  2.21677855e+00  2.25461806e+00  2.26782189e+00  2.29199846e+00
  2.32286127e+00  2.37064183e+00  2.54069865e+00  2.55453329e+00
  2.67226880e+00  2.69054734e+00  2.69744934e+00  2.73909211e+00
  2.76680130e+00  2.77030525e+00  3.04208954e+00  3.40271180e+00]
nelec by numeric integration = 68.00003010276312
    CPU time for vxc      5.78 sec, wall time      0.21 sec
E1 = -1771.9852160120229  Ecoul = 717.1247249182057  Exc = -70.51373317791167
Extra cycle  E= -748.122188399302  delta_E= 1.86e-10  |g|= 3.26e-05  |ddm|= 5.35e-05
    CPU time for scf_cycle     86.74 sec, wall time      3.22 sec
    CPU time for SCF     86.74 sec, wall time      3.22 sec
converged SCF energy = -748.122188399302
Converting <class 'pyscf.dft.rks.RKS'> to RHF


******** <class 'pyscf.tdscf.rks.TDA'> for <class 'pyscf.dft.rks.RKS'> ********
nstates = 10 singlet
wfnsym = None
conv_tol = 1e-09
eigh lindep = 1e-12
eigh level_shift = 0
eigh max_space = 50
eigh max_cycle = 100
chkfile = /scratch/global/yangjunjie/tmplr86qubz
max_memory 256000 MB (current use 605 MB)


davidson 0 10  |r|= 0.253  e= [0.1789218  0.20020499 0.2106031  0.21077283 0.21717789 0.23803274
 0.23849907 0.28318964 0.36195485 0.37875748]  max|de|= 0.379  lindep=    1
Old state -> New state
    3     ->     2 
    2     ->     3 
davidson 1 20  |r|= 0.0481  e= [0.17589857 0.19921219 0.2104034  0.21045272 0.2128251  0.23796301
 0.23815426 0.25189088 0.30228833 0.30852408]  max|de|= -0.0702  lindep= 0.888
davidson 2 30  |r|= 0.0234  e= [0.17576    0.19917439 0.21036232 0.21045191 0.21268736 0.23796096
 0.23812421 0.25138924 0.30011497 0.30442662]  max|de|= -0.0041  lindep= 0.834
davidson 3 40  |r|= 0.0378  e= [0.17575791 0.19917345 0.21036134 0.21045187 0.21268277 0.23796082
 0.23812334 0.25126311 0.29974727 0.3002327 ]  max|de|= -0.00419  lindep= 0.822
Old state -> New state
    1     ->     8 
davidson 4 50  |r|= 0.101  e= [0.17575786 0.1991734  0.21036129 0.21045187 0.21268263 0.2379608
 0.23812325 0.25125042 0.29514164 0.29542462]  max|de|= 0.096  lindep= 0.752
root 0 converged  |r|= 2.71e-06  e= 0.17575785895101873  max|de|= -9.01e-10
root 3 converged  |r|= 2.18e-06  e= 0.21045186688315887  max|de|= -3.55e-10
davidson 5 60  |r|= 0.0275  e= [0.17575786 0.19917339 0.21036128 0.21045187 0.21268263 0.2379608
 0.23812324 0.25124912 0.27698457 0.28897327]  max|de|= -0.0182  lindep= 0.786
Old state -> New state
    8     ->     9 
root 1 converged  |r|= 8.59e-07  e= 0.1991733935615016  max|de|= -4.4e-11
root 2 converged  |r|= 2.49e-06  e= 0.21036128263361328  max|de|= -1.77e-10
root 4 converged  |r|= 1.3e-06  e= 0.21268262660145823  max|de|= -6.66e-11
root 5 converged  |r|= 4e-06  e= 0.2379607988065647  max|de|= -3.09e-10
root 6 converged  |r|= 4.89e-06  e= 0.23812323506489946  max|de|= -6.02e-10
davidson 6 68  |r|= 0.0407  e= [0.17575786 0.19917339 0.21036128 0.21045187 0.21268263 0.2379608
 0.23812324 0.25124905 0.27569403 0.2850787 ]  max|de|= 0.00809  lindep= 0.839
davidson 7 10  |r|= 0.0407  e= [0.17575786 0.19917339 0.21036128 0.21045187 0.21268263 0.2379608
 0.23812324 0.25124905 0.27569403 0.2850787 ]  max|de|= 5.55e-16  lindep= 0.984
davidson 8 13  |r|= 0.029  e= [0.17575786 0.19917339 0.21036128 0.21045187 0.21268263 0.2379608
 0.23812324 0.25124905 0.27557822 0.28158369]  max|de|= -0.0035  lindep= 0.759
root 7 converged  |r|= 4.31e-06  e= 0.25124904615700927  max|de|= -3.18e-10
davidson 9 16  |r|= 0.0139  e= [0.17575786 0.19917339 0.21036128 0.21045187 0.21268263 0.2379608
 0.23812324 0.25124905 0.27555154 0.28012651]  max|de|= -0.00146  lindep= 0.823
davidson 10 18  |r|= 0.00879  e= [0.17575786 0.19917339 0.21036128 0.21045187 0.21268263 0.2379608
 0.23812324 0.25124905 0.27554119 0.27966388]  max|de|= -0.000463  lindep= 0.867
davidson 11 20  |r|= 0.00352  e= [0.17575786 0.19917339 0.21036128 0.21045187 0.21268263 0.2379608
 0.23812324 0.25124905 0.27553859 0.27954044]  max|de|= -0.000123  lindep= 0.877
davidson 12 22  |r|= 0.00191  e= [0.17575786 0.19917339 0.21036128 0.21045187 0.21268263 0.2379608
 0.23812324 0.25124905 0.27553816 0.279515  ]  max|de|= -2.54e-05  lindep= 0.855
davidson 13 24  |r|= 0.000808  e= [0.17575786 0.19917339 0.21036128 0.21045187 0.21268263 0.2379608
 0.23812324 0.25124905 0.27553809 0.27950985]  max|de|= -5.15e-06  lindep= 0.848
davidson 14 26  |r|= 0.000274  e= [0.17575786 0.19917339 0.21036128 0.21045187 0.21268263 0.2379608
 0.23812324 0.25124905 0.27553807 0.27950887]  max|de|= -9.8e-07  lindep= 0.829
davidson 15 28  |r|= 0.000104  e= [0.17575786 0.19917339 0.21036128 0.21045187 0.21268263 0.2379608
 0.23812324 0.25124905 0.27553807 0.27950876]  max|de|= -1.11e-07  lindep= 0.833
root 8 converged  |r|= 3.61e-06  e= 0.2755380735695788  max|de|= -1.35e-10
davidson 16 30  |r|= 4.33e-05  e= [0.17575786 0.19917339 0.21036128 0.21045187 0.21268263 0.2379608
 0.23812324 0.25124905 0.27553807 0.27950874]  max|de|= -1.34e-08  lindep= 0.805
davidson 17 31  |r|= 1.31e-05  e= [0.17575786 0.19917339 0.21036128 0.21045187 0.21268263 0.2379608
 0.23812324 0.25124905 0.27553807 0.27950874]  max|de|= -2.2e-09  lindep= 0.87
root 9 converged  |r|= 8.11e-06  e= 0.27950874245012386  max|de|= -2.96e-10
converged 18 32  |r|= 8.11e-06  e= [0.17575786 0.19917339 0.21036128 0.21045187 0.21268263 0.2379608
 0.23812324 0.25124905 0.27553807 0.27950874]  max|de|= -2.96e-10
    CPU time for TDA    286.93 sec, wall time     10.44 sec
Excited State energies (eV)
[4.78261495 5.4197841  5.72422207 5.72668699 5.78738905 6.47524315
 6.47966327 6.83683478 7.49777288 7.60582029]
Converting <class 'pyscf.dft.rks.RKS'> to RHF


******** <class 'pyscf.tdscf.rks.TDDFT'> for <class 'pyscf.dft.rks.RKS'> ********
nstates = 10 singlet
wfnsym = None
conv_tol = 1e-09
eigh lindep = 1e-12
eigh level_shift = 0
eigh max_space = 50
eigh max_cycle = 100
chkfile = /scratch/global/yangjunjie/tmplr86qubz
max_memory 256000 MB (current use 661 MB)


davidson 0 10  |r|= 0.399  e= [0.1789218  0.20020499 0.2106031  0.21077283 0.21717789 0.23803274
 0.23849907 0.28318964 0.36195485 0.37875748]  max|de|= 0.379  lindep=    1
Old state -> New state
    9     ->     0 
    8     ->     1 
    0     ->     2 
    1     ->     3 
    7     ->     4 
    3     ->     5 
    2     ->     6 
    4     ->     7 
    0     ->     8 
    5     ->     9 
davidson 1 20  |r|= 0.759  e= [0.06275738 0.06975671 0.17148732 0.19871152 0.20133643 0.21014581
 0.21044105 0.21091667 0.21899254 0.2379533 ]  max|de|= -0.316  lindep= 0.133
Old state -> New state
    2     ->     1 
    5     ->     4 
    7     ->     5 
    0     ->     7 
    1     ->     8 
davidson 2 30  |r|= 1.58  e= [0.08777667 0.12016352 0.17396318 0.19887486 0.20953749 0.21039591
 0.21044774 0.21910455 0.23784098 0.23795638]  max|de|= 0.168  lindep= 0.204
Old state -> New state
    4     ->     0 
    2     ->     1 
    3     ->     2 
    4     ->     3 
    6     ->     4 
    8     ->     6 
    9     ->     7 
    7     ->     8 
    7     ->     9 
davidson 3 40  |r|= 1.04  e= [0.10859762 0.17388468 0.19896764 0.20958248 0.21044996 0.21047856
 0.23785722 0.23795879 0.24126765 0.26384444]  max|de|= -0.101  lindep= 0.101
Old state -> New state
    1     ->     2 
    2     ->     3 
    3     ->     4 
    4     ->     5 
    5     ->     6 
    6     ->     7 
    7     ->     8 
    8     ->     9 
davidson 4 50  |r|= 1.32  e= [0.06774146 0.17285675 0.17457302 0.19896365 0.20967322 0.21044965
 0.21053888 0.23791401 0.2379583  0.24143884]  max|de|= -0.0409  lindep= 0.269
Old state -> New state
    2     ->     1 
    0     ->     2 
    3     ->     7 
    7     ->     8 
    8     ->     9 
davidson 5 60  |r|= 1.14  e= [0.06691859 0.1738709  0.18240532 0.19895883 0.20970252 0.21044938
 0.21055466 0.23452639 0.23788681 0.23795823]  max|de|= 0.115  lindep= 0.0756
Old state -> New state
    0     ->     1 
    1     ->     2 
    8     ->     7 
    9     ->     8 
    2     ->     9 
davidson 6 70  |r|= 1.17  e= [0.05742636 0.15569461 0.17387166 0.19896239 0.20971102 0.21044952
 0.21056148 0.23791016 0.23795853 0.24145892]  max|de|= 0.0888  lindep= 0.0313
Old state -> New state
    2     ->     1 
    0     ->     2 
    2     ->     3 
    2     ->     4 
    3     ->     5 
    4     ->     6 
    5     ->     7 
    6     ->     8 
    7     ->     9 
davidson 7 80  |r|= 1.47  e= [0.01872487 0.03814774 0.07689441 0.14180619 0.17387133 0.19896252
 0.20971345 0.21044955 0.21055853 0.23792436]  max|de|= -0.136  lindep= 0.0746
root 7 converged  |r|= 1.86e-05  e= 0.21044954864174217  max|de|= -3.61e-16
davidson 8 10  |r|= 1.47  e= [0.01872487 0.03814774 0.07689441 0.14180619 0.17387133 0.19896252
 0.20971345 0.21044955 0.21055853 0.23792436]  max|de|= -5.27e-16  lindep= 0.201
Old state -> New state
    0     ->     1 
    1     ->     2 
    0     ->     3 
davidson 9 19  |r|= 1.33  e= [0.01581633 0.07029941 0.0769626  0.13699275 0.17387156 0.19896263
 0.20971117 0.21044955 0.2105631  0.23791259]  max|de|= 0.118  lindep= 0.0455
Old state -> New state
    6     ->     0 
    2     ->     1 
    6     ->     2 
    4     ->     3 
    5     ->     4 
    6     ->     5 
    7     ->     6 
davidson 10 29  |r|= 1.35  e= [0.06933332 0.1149171  0.16153946 0.1738713  0.1989636  0.20971003
 0.21017165 0.21044975 0.2105584  0.23788936]  max|de|= -0.14  lindep= 0.194
Old state -> New state
    3     ->     1 
    4     ->     2 
    5     ->     3 
    7     ->     4 
    8     ->     5 
    9     ->     6 
    1     ->     7 
    2     ->     8 
    6     ->     9 
davidson 11 39  |r|= 1.18  e= [0.04836663 0.17387166 0.19896268 0.20971257 0.21044954 0.21056392
 0.23789191 0.24497358 0.26513031 0.30629256]  max|de|= 0.13  lindep= 0.166
Old state -> New state
    1     ->     6 
    3     ->     7 
    6     ->     8 
davidson 12 49  |r|= 1.24  e= [0.04068779 0.17387156 0.19896264 0.20971379 0.21044955 0.21056156
 0.21561043 0.21765622 0.23790842 0.27580429]  max|de|= 0.0417  lindep= 0.0981
Old state -> New state
    1     ->     0 
    0     ->     1 
    7     ->     2 
    1     ->     3 
    2     ->     4 
    3     ->     5 
    4     ->     6 
    5     ->     7 
davidson 13 59  |r|=  1.2  e= [0.01571082 0.04086537 0.13339213 0.17387161 0.19896268 0.20971312
 0.21044954 0.21056288 0.23791432 0.28220357]  max|de|= -0.158  lindep= 0.0544
Old state -> New state
    3     ->     1 
root 4 converged  |r|= 1.18e-06  e= 0.19896267485738306  max|de|= -6.19e-10
root 6 converged  |r|= 2.56e-07  e= 0.21044954276232963  max|de|= 7.47e-11
davidson 14 67  |r|= 1.15  e= [0.01501911 0.06882184 0.14524498 0.1738716  0.19896267 0.20971257
 0.21044954 0.21056131 0.23791258 0.24442964]  max|de|= -0.105  lindep= 0.0416
Old state -> New state
    2     ->     0 
    3     ->     1 
    4     ->     2 
    5     ->     3 
    6     ->     4 
    7     ->     5 
    9     ->     6 
    8     ->     7 
    2     ->     8 
davidson 15 74  |r|= 1.08  e= [0.03254543 0.17387162 0.19896267 0.20971246 0.21044954 0.21056147
 0.22882141 0.23791062 0.25567166 0.28077523]  max|de|= -0.113  lindep= 0.113
Old state -> New state
    0     ->     1 
    1     ->     2 
    2     ->     3 
    3     ->     4 
    4     ->     5 
    5     ->     6 
    3     ->     7 
    7     ->     8 
    8     ->     9 
davidson 16 82  |r|= 0.993  e= [0.03397543 0.17281704 0.17387162 0.19896267 0.20971293 0.21044954
 0.21056259 0.22430185 0.23790786 0.23950236]  max|de|= 0.14  lindep= 0.0505
root 2 converged  |r|= 6.91e-07  e= 0.1738716222998455  max|de|= -4.72e-16
root 3 converged  |r|= 6.26e-07  e= 0.19896267491800548  max|de|= 2.78e-17
root 4 converged  |r|= 3.09e-05  e= 0.20971292998313004  max|de|= 6.11e-16
davidson 17 10  |r|= 0.993  e= [0.03397543 0.17281704 0.17387162 0.19896267 0.20971293 0.21044954
 0.21056259 0.22430185 0.23790786 0.23950236]  max|de|= 6.55e-15  lindep=  0.3
Old state -> New state
    2     ->     1 
    4     ->     2 
    8     ->     7 
    1     ->     8 
davidson 18 16  |r|= 1.34  e= [0.07792396 0.17387162 0.18459283 0.19896267 0.20971234 0.21044954
 0.21056143 0.2379009  0.26293165 0.34236177]  max|de|= 0.103  lindep= 0.245
Old state -> New state
    2     ->     0 
    2     ->     1 
    1     ->     2 
    9     ->     8 
    2     ->     9 
root 2 converged  |r|= 3.12e-07  e= 0.17387161682988228  max|de|= -4.39e-10
davidson 19 23  |r|= 1.57  e= [0.03937479 0.16814116 0.17387162 0.19896267 0.20971243 0.21044954
 0.21056158 0.23790751 0.2638387  0.30302406]  max|de|= -0.145  lindep= 0.202
Old state -> New state
    8     ->     0 
    2     ->     1 
    1     ->     9 
davidson 20 30  |r|= 1.21  e= [0.07252669 0.16409887 0.17387162 0.19896267 0.20971249 0.21044954
 0.2105617  0.23791225 0.24857314 0.28977153]  max|de|= -0.191  lindep= 0.168
Old state -> New state
    2     ->     1 
    3     ->     2 
    4     ->     3 
    5     ->     4 
    6     ->     5 
    7     ->     6 
    8     ->     7 
davidson 21 37  |r|= 1.31  e= [0.03429514 0.17387162 0.19896267 0.20971248 0.21044954 0.21056147
 0.23790966 0.25152125 0.32528344 0.34170103]  max|de|= 0.0767  lindep= 0.105
Old state -> New state
    9     ->     2 
    2     ->     3 
    3     ->     4 
    4     ->     5 
    5     ->     6 
    6     ->     7 
    7     ->     9 
davidson 22 44  |r|= 1.29  e= [0.03744042 0.17387162 0.17515588 0.19896267 0.2097125  0.21044954
 0.21056151 0.23791141 0.24053362 0.26935017]  max|de|= -0.167  lindep= 0.047
Old state -> New state
    8     ->     2 
    1     ->     3 
    3     ->     4 
    4     ->     5 
    5     ->     6 
    6     ->     7 
    7     ->     8 
davidson 23 52  |r|= 1.23  e= [0.03904854 0.11363292 0.12117684 0.17387161 0.19896267 0.20971252
 0.21044954 0.21056153 0.23791299 0.23937518]  max|de|= -0.119  lindep= 0.0199
Old state -> New state
    3     ->     1 
    4     ->     2 
    5     ->     3 
    6     ->     4 
    7     ->     5 
    5     ->     6 
    8     ->     7 
    0     ->     8 
    2     ->     9 
davidson 24 59  |r|=  1.3  e= [0.00720411 0.17387162 0.19896268 0.20971265 0.21044954 0.21056167
 0.22946077 0.23782087 0.2908782  0.30395506]  max|de|= 0.252  lindep= 0.0486
Old state -> New state
    3     ->     6 
    6     ->     7 
    7     ->     8 
root 2 converged  |r|= 2.7e-07  e= 0.19896267491413785  max|de|= -5.6e-10
davidson 25 66  |r|= 0.97  e= [0.12261967 0.17387162 0.19896267 0.20971254 0.21044954 0.21056158
 0.21269223 0.23418844 0.23791444 0.28304155]  max|de|= 0.115  lindep= 0.106
Old state -> New state
    0     ->     1 
    1     ->     2 
    2     ->     3 
    3     ->     4 
    4     ->     5 
    5     ->     6 
    8     ->     7 
    7     ->     8 
    7     ->     9 
root 2 converged  |r|= 7.42e-08  e= 0.17387162022691371  max|de|= 4.04e-10
davidson 26 73  |r|= 1.37  e= [0.05266766 0.11746278 0.17387162 0.19896268 0.20971251 0.21044954
 0.2105615  0.23791195 0.23832137 0.24261527]  max|de|= -0.07  lindep= 0.127
Old state -> New state
    0     ->     1 
    2     ->     3 
    3     ->     4 
    4     ->     5 
    5     ->     6 
    6     ->     7 
    7     ->     9 
davidson 27 79  |r|= 1.39  e= [0.0182283  0.10230802 0.15452548 0.17387162 0.19896268 0.20971251
 0.21044954 0.21056149 0.23775311 0.2379112 ]  max|de|= 0.0496  lindep= 0.0887
root 5 converged  |r|= 7.08e-07  e= 0.2097125137245292  max|de|= 9.99e-16
root 7 converged  |r|= 1.86e-06  e= 0.2105614945619498  max|de|= -1.17e-15
davidson 28 10  |r|= 1.39  e= [0.0182283  0.10230802 0.15452548 0.17387162 0.19896268 0.20971251
 0.21044954 0.21056149 0.23775311 0.2379112 ]  max|de|= 1.17e-14  lindep= 0.269
Old state -> New state
    3     ->     2 
    4     ->     3 
    5     ->     4 
    6     ->     5 
    7     ->     6 
    9     ->     7 
    1     ->     9 
davidson 29 15  |r|= 1.35  e= [0.05988227 0.12150663 0.17387162 0.19896268 0.20971252 0.21044954
 0.21056149 0.23791768 0.23940668 0.25917927]  max|de|= 0.157  lindep= 0.144
Old state -> New state
    2     ->     1 
    3     ->     2 
    4     ->     3 
    5     ->     4 
    6     ->     5 
    7     ->     6 
    9     ->     8 
davidson 30 20  |r|= 1.38  e= [0.0422345  0.17387162 0.19896268 0.20971251 0.21044954 0.21056149
 0.23790794 0.23800165 0.36979658 0.46195916]  max|de|= 0.203  lindep= 0.187
Old state -> New state
    6     ->     7 
    5     ->     9 
davidson 31 25  |r|= 1.29  e= [0.03980318 0.17387162 0.19896268 0.20971251 0.21044954 0.21056149
 0.2379104  0.23809512 0.29144177 0.32072208]  max|de|= 0.11  lindep= 0.174
Old state -> New state
    8     ->     1 
    1     ->     2 
    2     ->     3 
    3     ->     4 
    4     ->     5 
    5     ->     6 
    6     ->     7 
    6     ->     8 
    8     ->     9 
davidson 32 30  |r|= 1.19  e= [0.03743964 0.07092947 0.17387162 0.19896268 0.20971252 0.21044954
 0.2105615  0.23791512 0.23802423 0.30047464]  max|de|= -0.221  lindep= 0.0961
Old state -> New state
    2     ->     1 
    3     ->     2 
    6     ->     3 
    4     ->     7 
    7     ->     8 
    8     ->     9 
davidson 33 35  |r|=  1.1  e= [0.03990441 0.17387162 0.19896268 0.20211811 0.20971252 0.21044954
 0.2105615  0.22503355 0.23790875 0.23813197]  max|de|= 0.0153  lindep= 0.0318
Old state -> New state
    4     ->     3 
    5     ->     4 
    6     ->     5 
    7     ->     6 
    8     ->     7 
    9     ->     8 
    3     ->     9 
davidson 34 40  |r|= 1.08  e= [0.03487029 0.17387162 0.19896268 0.20971252 0.21044954 0.2105615
 0.2256824  0.23791201 0.23836098 0.28329175]  max|de|= 0.0812  lindep= 0.0338
Old state -> New state
    0     ->     1 
    9     ->     2 
    1     ->     3 
    1     ->     4 
    2     ->     5 
    3     ->     6 
    4     ->     7 
    5     ->     8 
    7     ->     9 
root 6 converged  |r|= 1.99e-07  e= 0.20971251422802667  max|de|= -8.5e-10
davidson 35 45  |r|= 1.33  e= [0.00292679 0.03178305 0.11518417 0.14492017 0.17387162 0.19896268
 0.20971251 0.21044954 0.2105615  0.23791151]  max|de|= -0.168  lindep= 0.0582
Old state -> New state
    4     ->     1 
    4     ->     2 
    5     ->     3 
    6     ->     4 
    7     ->     5 
    8     ->     6 
    9     ->     7 
    9     ->     8 
    3     ->     9 
root 6 converged  |r|= 4.18e-07  e= 0.21056149560627455  max|de|= 1.37e-10
davidson 36 50  |r|= 1.37  e= [0.0047846  0.15597047 0.17387162 0.19896268 0.20971251 0.21044954
 0.2105615  0.23791052 0.23794507 0.24600396]  max|de|= 0.101  lindep= 0.0175
Old state -> New state
    2     ->     1 
    3     ->     2 
    4     ->     3 
    5     ->     4 
    6     ->     5 
    7     ->     6 
    8     ->     7 
    1     ->     8 
davidson 37 55  |r|= 1.23  e= [0.06022378 0.17387162 0.19896268 0.20971252 0.21044954 0.2105615
 0.23791169 0.23799147 0.25787531 0.28841626]  max|de|= 0.102  lindep= 0.0996
Old state -> New state
    3     ->     0 
    9     ->     8 
    0     ->     9 
davidson 38 60  |r|= 1.21  e= [0.13971452 0.17387162 0.19896268 0.20971251 0.21044954 0.2105615
 0.23791196 0.23797908 0.28288377 0.32579648]  max|de|= 0.266  lindep= 0.119
Old state -> New state
    0     ->     8 
root 5 converged  |r|= 1.06e-07  e= 0.21056149705654728  max|de|= 2.49e-10
davidson 39 65  |r|= 1.12  e= [0.10754493 0.17387162 0.19896268 0.20971252 0.21044954 0.2105615
 0.23791193 0.23796579 0.24593675 0.27415756]  max|de|= 0.106  lindep= 0.0978
Old state -> New state
    1     ->     0 
root 3 converged  |r|= 2.75e-08  e= 0.20971251534937255  max|de|= 2.91e-11
davidson 40 70  |r|= 1.25  e= [0.13526341 0.17387162 0.19896268 0.20971252 0.21044954 0.2105615
 0.23791146 0.23796391 0.24189027 0.27656347]  max|de|= -0.0386  lindep= 0.156
Old state -> New state
    0     ->     1 
    1     ->     2 
    1     ->     3 
    2     ->     4 
    3     ->     5 
    4     ->     6 
    5     ->     7 
    6     ->     8 
    7     ->     9 
davidson 41 75  |r|= 1.12  e= [0.01903387 0.10643842 0.17387162 0.1744454  0.19896268 0.20971252
 0.21044954 0.2105615  0.23791172 0.23796218]  max|de|= -0.116  lindep= 0.0954
Old state -> New state
    2     ->     1 
    4     ->     2 
    5     ->     3 
    6     ->     4 
    7     ->     5 
    8     ->     6 
    9     ->     7 
    1     ->     8 
    1     ->     9 
davidson 42 80  |r|= 1.34  e= [0.15343795 0.17387162 0.19896267 0.20971252 0.21044954 0.2105615
 0.23791191 0.23795911 0.24197732 0.27912987]  max|de|= 0.173  lindep= 0.105
root 1 converged  |r|= 2.43e-08  e= 0.17387161973900758  max|de|= -3.61e-16
davidson 43 10  |r|= 1.34  e= [0.15343795 0.17387162 0.19896267 0.20971252 0.21044954 0.2105615
 0.23791191 0.23795911 0.24197732 0.27912987]  max|de|= 3.77e-15  lindep= 0.245
davidson 44 15  |r|= 0.986  e= [0.1107073  0.17387162 0.19896268 0.20971252 0.21044954 0.2105615
 0.23791204 0.23795757 0.24045961 0.2775256 ]  max|de|= -0.0427  lindep= 0.349
Old state -> New state
    0     ->     1 
    0     ->     2 
    1     ->     3 
    2     ->     4 
    3     ->     5 
    4     ->     6 
    5     ->     7 
    6     ->     8 
    6     ->     9 
davidson 45 20  |r|= 1.38  e= [0.00469772 0.08912817 0.13197411 0.17387162 0.19896268 0.20971252
 0.21044954 0.2105615  0.23791901 0.23796103]  max|de|= -0.106  lindep= 0.299
Old state -> New state
    3     ->     1 
    5     ->     2 
    4     ->     3 
    5     ->     4 
    6     ->     5 
    7     ->     6 
    8     ->     7 
    9     ->     8 
    2     ->     9 
root 6 converged  |r|= 5.65e-08  e= 0.2105614981802144  max|de|= -9.6e-10
davidson 46 25  |r|= 1.46  e= [0.02831606 0.17387162 0.18902065 0.19896268 0.20971252 0.21044954
 0.2105615  0.23791193 0.23795835 0.24161848]  max|de|= 0.11  lindep= 0.0579
Old state -> New state
    9     ->     0 
    3     ->     2 
    4     ->     3 
    5     ->     4 
    6     ->     5 
    7     ->     6 
    8     ->     7 
    9     ->     8 
    2     ->     9 
davidson 47 30  |r|= 0.981  e= [0.14928007 0.17387162 0.19896268 0.20971252 0.21044954 0.2105615
 0.23791194 0.23795844 0.24175487 0.27749349]  max|de|= -0.0923  lindep= 0.183
Old state -> New state
    8     ->     1 
    1     ->     2 
    2     ->     3 
    3     ->     4 
    4     ->     5 
    5     ->     6 
    8     ->     7 
    6     ->     8 
    7     ->     9 
davidson 48 35  |r|= 1.25  e= [0.06488219 0.11376592 0.17387162 0.19896268 0.20971252 0.21044954
 0.2105615  0.23152836 0.23791286 0.2379587 ]  max|de|= -0.128  lindep= 0.183
Old state -> New state
    2     ->     0 
    2     ->     1 
    3     ->     2 
    4     ->     3 
    5     ->     4 
    6     ->     5 
    8     ->     6 
    9     ->     7 
    7     ->     8 
    7     ->     9 
davidson 49 40  |r|= 0.736  e= [0.17387162 0.18714605 0.19896268 0.20971252 0.21044954 0.2105615
 0.23791185 0.23795842 0.24146063 0.25481768]  max|de|= 0.0233  lindep= 0.271
Old state -> New state
    2     ->     3 
    3     ->     4 
    4     ->     5 
    5     ->     6 
    6     ->     7 
    7     ->     8 
    8     ->     9 
davidson 50 45  |r|= 0.804  e= [0.17387162 0.18814109 0.19896267 0.19980646 0.20971252 0.21044954
 0.2105615  0.23791187 0.23795831 0.24138121]  max|de|= 0.000995  lindep= 0.0483
Old state -> New state
    9     ->     0 
    9     ->     1 
    0     ->     2 
    1     ->     3 
    2     ->     4 
    9     ->     5 
    4     ->     6 
    5     ->     7 
    6     ->     8 
    7     ->     9 
davidson 51 51  |r|= 1.27  e= [0.08002689 0.12426    0.17387162 0.18606919 0.19896267 0.201848
 0.20971252 0.21044954 0.2105615  0.23791189]  max|de|= -0.161  lindep= 0.175
Old state -> New state
    1     ->     0 
    0     ->     1 
    4     ->     3 
    6     ->     4 
    7     ->     5 
    8     ->     6 
    6     ->     7 
    9     ->     8 
    5     ->     9 
root 3 converged  |r|= 9.25e-08  e= 0.1989626750133293  max|de|= 1.61e-10
davidson 52 56  |r|= 1.21  e= [0.04680851 0.12709677 0.17387162 0.19896268 0.20971252 0.21044954
 0.2105615  0.21217915 0.2379119  0.23795827]  max|de|= -0.0775  lindep= 0.122
Old state -> New state
    0     ->     1 
    4     ->     5 
    5     ->     6 
    6     ->     7 
davidson 53 62  |r|= 1.29  e= [0.02769699 0.07976716 0.17387162 0.19896268 0.20465597 0.20971252
 0.21044954 0.2105615  0.23791184 0.23795833]  max|de|= 0.033  lindep= 0.0827
Old state -> New state
    2     ->     1 
    5     ->     4 
    6     ->     5 
    7     ->     6 
    8     ->     7 
    9     ->     8 
    4     ->     9 
root 6 converged  |r|= 5.54e-08  e= 0.21056149778866945  max|de|= 2.28e-10
davidson 54 67  |r|= 1.07  e= [0.06842837 0.17387162 0.17892704 0.19896267 0.20971252 0.21044954
 0.2105615  0.23791189 0.2379583  0.2414875 ]  max|de|= 0.0407  lindep= 0.134
Old state -> New state
    0     ->     1 
    1     ->     2 
    4     ->     7 
    7     ->     8 
    8     ->     9 
davidson 55 72  |r|= 1.27  e= [0.03671127 0.0752514  0.17387162 0.19896268 0.20971252 0.21044954
 0.2105615  0.21434677 0.23791189 0.23795829]  max|de|= -0.0317  lindep= 0.124
Old state -> New state
    2     ->     1 
    6     ->     7 
root 4 converged  |r|= 2.66e-08  e= 0.20971251546886602  max|de|= -9.93e-10
davidson 56 77  |r|=  1.3  e= [0.03572541 0.15831335 0.17387162 0.19896267 0.20971252 0.21044954
 0.2105615  0.22376808 0.23791189 0.2379583 ]  max|de|= -0.0156  lindep= 0.0247
root 8 converged  |r|= 2.88e-06  e= 0.23791189107688734  max|de|= 2e-14
davidson 57 10  |r|=  1.3  e= [0.03572541 0.15831335 0.17387162 0.19896267 0.20971252 0.21044954
 0.2105615  0.22376808 0.23791189 0.2379583 ]  max|de|= -4.76e-12  lindep= 0.279
Old state -> New state
    7     ->     1 
    4     ->     7 
davidson 58 14  |r|=  1.4  e= [0.03470044 0.07043365 0.17387162 0.19896268 0.20971252 0.21044954
 0.2105615  0.21543356 0.2379119  0.23795831]  max|de|= -0.153  lindep= 0.0747
Old state -> New state
    0     ->     1 
    8     ->     7 
    9     ->     8 
    8     ->     9 
davidson 59 19  |r|= 1.07  e= [0.00469887 0.03591789 0.17387162 0.19896268 0.20971252 0.21044954
 0.2105615  0.23791194 0.23795828 0.24803696]  max|de|= -0.03  lindep= 0.238
Old state -> New state
    2     ->     1 
    3     ->     2 
    4     ->     3 
    5     ->     4 
    6     ->     5 
    7     ->     6 
    8     ->     7 
    0     ->     8 
    4     ->     9 
davidson 60 24  |r|= 1.17  e= [0.03385531 0.17387162 0.19896268 0.20971252 0.21044954 0.2105615
 0.23791189 0.23795829 0.26247775 0.3251851 ]  max|de|= 0.258  lindep= 0.316
Old state -> New state
    8     ->     9 
davidson 61 28  |r|= 1.17  e= [0.0376378  0.17387162 0.19896268 0.20971252 0.21044954 0.2105615
 0.2379119  0.23795829 0.25908301 0.29109935]  max|de|= 0.0286  lindep= 0.127
Old state -> New state
    0     ->     1 
    0     ->     2 
    1     ->     3 
    8     ->     4 
    2     ->     5 
    3     ->     6 
    4     ->     7 
    5     ->     8 
    6     ->     9 
davidson 62 32  |r|=  1.3  e= [0.02291405 0.04061655 0.12119451 0.17387162 0.19053446 0.19896268
 0.20971252 0.21044954 0.2105615  0.23791189]  max|de|= 0.0836  lindep= 0.0766
Old state -> New state
    3     ->     1 
    3     ->     2 
    5     ->     3 
    6     ->     4 
    7     ->     5 
    8     ->     6 
    9     ->     7 
    2     ->     8 
    4     ->     9 
davidson 63 36  |r|= 1.04  e= [0.03411378 0.16366905 0.17387162 0.19896268 0.20971252 0.21044954
 0.2105615  0.23791189 0.23795829 0.24416475]  max|de|= 0.117  lindep= 0.0729
Old state -> New state
    2     ->     0 
    3     ->     1 
    4     ->     2 
    5     ->     3 
    6     ->     4 
    7     ->     5 
    8     ->     6 
    9     ->     7 
    9     ->     8 
    1     ->     9 
root 5 converged  |r|= 3.99e-07  e= 0.23791188993040385  max|de|= 6.06e-10
root 6 converged  |r|= 7.54e-06  e= 0.23795829234047616  max|de|= -7.9e-11
davidson 64 40  |r|= 0.345  e= [0.17387162 0.19896268 0.20971252 0.21044954 0.2105615  0.23791189
 0.23795829 0.24786441 0.29665779 0.31934453]  max|de|= 0.156  lindep= 0.47
Old state -> New state
    8     ->     9 
davidson 65 43  |r|= 0.227  e= [0.17387162 0.19896268 0.20971252 0.21044954 0.2105615  0.23791189
 0.23795829 0.24085066 0.27754036 0.28483255]  max|de|= -0.0191  lindep= 0.608
Old state -> New state
    7     ->     0 
    0     ->     1 
    1     ->     2 
    2     ->     3 
    3     ->     4 
    4     ->     5 
    5     ->     6 
    6     ->     7 
    9     ->     8 
root 6 converged  |r|= 9.39e-07  e= 0.23791189272825083  max|de|= -6.12e-10
davidson 66 47  |r|= 1.27  e= [0.067392   0.17387162 0.19896268 0.20971252 0.21044954 0.2105615
 0.23791189 0.23795829 0.27999121 0.28668   ]  max|de|= -0.173  lindep= 0.21
Old state -> New state
    0     ->     1 
    1     ->     2 
    2     ->     3 
    3     ->     4 
    4     ->     5 
    5     ->     6 
    6     ->     7 
    7     ->     8 
    0     ->     9 
davidson 67 51  |r|= 1.16  e= [0.0052305  0.05865162 0.17387162 0.19896268 0.20971252 0.21044954
 0.2105615  0.23791189 0.23795829 0.23925041]  max|de|= 0.172  lindep= 0.135
Old state -> New state
    9     ->     2 
    2     ->     3 
    3     ->     4 
    4     ->     5 
    5     ->     6 
    6     ->     7 
    9     ->     8 
    7     ->     9 
davidson 68 56  |r|= 1.15  e= [0.0070004  0.04698786 0.14017385 0.17387162 0.19896268 0.20971252
 0.21044954 0.2105615  0.22095273 0.23791189]  max|de|= -0.0991  lindep= 0.0106
Old state -> New state
    3     ->     1 
    4     ->     2 
    5     ->     3 
    6     ->     4 
    7     ->     5 
    9     ->     6 
    2     ->     7 
    1     ->     9 
davidson 69 60  |r|= 1.19  e= [0.13022229 0.17387162 0.19896268 0.20971252 0.21044954 0.2105615
 0.23791189 0.23795829 0.24113567 0.26576701]  max|de|= 0.219  lindep= 0.131
Old state -> New state
    0     ->     1 
    1     ->     2 
    2     ->     3 
    3     ->     4 
    4     ->     5 
    5     ->     6 
    6     ->     7 
    7     ->     8 
    8     ->     9 
root 7 converged  |r|= 4.66e-08  e= 0.23791189190281298  max|de|= 4.72e-10
root 8 converged  |r|= 9.05e-07  e= 0.23795829201284224  max|de|= -4.42e-10
davidson 70 64  |r|= 1.29  e= [0.03663426 0.1599224  0.17387162 0.19896268 0.20971252 0.21044954
 0.2105615  0.23791189 0.23795829 0.24168983]  max|de|= -0.0936  lindep= 0.122
Old state -> New state
    0     ->     1 
davidson 71 67  |r|= 1.51  e= [0.02489423 0.15044073 0.17387162 0.19896268 0.20971252 0.21044954
 0.2105615  0.23791189 0.23795829 0.24155431]  max|de|= 0.114  lindep= 0.0694
Old state -> New state
    2     ->     1 
    4     ->     7 
    7     ->     8 
    8     ->     9 
davidson 72 70  |r|= 1.08  e= [0.00337643 0.13955202 0.17387162 0.19896268 0.20971252 0.21044954
 0.2105615  0.22065121 0.23791189 0.23795829]  max|de|= -0.0343  lindep= 0.0501
Old state -> New state
    0     ->     1 
    8     ->     7 
    9     ->     8 
    7     ->     9 
davidson 73 73  |r|= 1.07  e= [0.00111341 0.12073459 0.17387162 0.19896268 0.20971252 0.21044954
 0.2105615  0.23791189 0.23795829 0.2415181 ]  max|de|= 0.117  lindep= 0.0199
Old state -> New state
    0     ->     1 
davidson 74 76  |r|= 1.11  e= [0.07760923 0.11574449 0.17387162 0.19896268 0.20971252 0.21044954
 0.2105615  0.23791189 0.23795829 0.24150923]  max|de|= 0.115  lindep= 0.111
Old state -> New state
    4     ->     1 
davidson 75 79  |r|= 1.32  e= [0.0801706  0.15527349 0.17387162 0.19896267 0.20971252 0.21044954
 0.2105615  0.23791189 0.23795829 0.24147252]  max|de|= -0.0544  lindep= 0.0252
davidson 76 10  |r|= 1.32  e= [0.0801706  0.15527349 0.17387162 0.19896267 0.20971252 0.21044954
 0.2105615  0.23791189 0.23795829 0.24147252]  max|de|= -6.8e-11  lindep= 0.239
Old state -> New state
    2     ->     1 
    3     ->     2 
davidson 77 13  |r|= 0.939  e= [0.07963114 0.17387162 0.19638828 0.19896267 0.20971252 0.21044954
 0.2105615  0.23791189 0.23795829 0.24147406]  max|de|= -0.00257  lindep= 0.0625
Old state -> New state
    3     ->     2 
    4     ->     3 
    5     ->     4 
    6     ->     5 
    9     ->     6 
davidson 78 16  |r|= 0.987  e= [0.07620571 0.17387162 0.19896268 0.20971252 0.21044954 0.2105615
 0.23084941 0.23791189 0.23795829 0.24120008]  max|de|= -0.0106  lindep= 0.0864
Old state -> New state
    0     ->     1 
    1     ->     2 
    2     ->     3 
    3     ->     4 
    4     ->     5 
    5     ->     6 
davidson 79 19  |r|= 1.26  e= [0.04027751 0.14551474 0.17387162 0.19896268 0.20971252 0.21044954
 0.2105615  0.23791189 0.23795829 0.24151467]  max|de|= 0.0693  lindep= 0.266
Old state -> New state
    9     ->     1 
    0     ->     2 
    2     ->     3 
    3     ->     4 
    4     ->     5 
    5     ->     6 
    6     ->     7 
    7     ->     8 
    8     ->     9 
davidson 80 22  |r|= 1.25  e= [0.01621481 0.07043997 0.14752917 0.17387162 0.19896268 0.20971252
 0.21044954 0.2105615  0.23791189 0.23795829]  max|de|= -0.171  lindep= 0.198
Old state -> New state
    3     ->     1 
    3     ->     2 
    4     ->     3 
    5     ->     4 
    6     ->     5 
    7     ->     6 
    8     ->     7 
    9     ->     8 
    1     ->     9 
davidson 81 25  |r|= 1.11  e= [0.01841182 0.15553742 0.17387162 0.19896268 0.20971252 0.21044954
 0.2105615  0.23791189 0.23795829 0.24148939]  max|de|= 0.171  lindep= 0.0643
Old state -> New state
    2     ->     1 
    3     ->     2 
    4     ->     3 
    5     ->     4 
    6     ->     5 
    7     ->     6 
    8     ->     7 
    9     ->     8 
    1     ->     9 
davidson 82 28  |r|= 1.35  e= [0.04656853 0.17387162 0.19896268 0.20971252 0.21044954 0.2105615
 0.23791189 0.23795829 0.24150448 0.28940214]  max|de|= 0.134  lindep= 0.236
Old state -> New state
    8     ->     0 
    0     ->     1 
    1     ->     2 
    1     ->     3 
    2     ->     4 
    3     ->     5 
    4     ->     6 
    5     ->     7 
    6     ->     8 
    7     ->     9 
davidson 83 31  |r|= 1.36  e= [0.03932467 0.04974631 0.16408131 0.17387162 0.19896268 0.20971252
 0.21044954 0.2105615  0.23791189 0.23795829]  max|de|= -0.202  lindep= 0.0625
Old state -> New state
    1     ->     2 
davidson 84 34  |r|= 1.16  e= [0.04041199 0.13075914 0.15527842 0.17387162 0.19896268 0.20971252
 0.21044954 0.2105615  0.23791189 0.23795829]  max|de|= 0.106  lindep= 0.0248
Old state -> New state
    3     ->     1 
    5     ->     2 
    4     ->     3 
    5     ->     4 
    6     ->     5 
    7     ->     6 
    8     ->     7 
    9     ->     8 
    1     ->     9 
davidson 85 37  |r|= 1.07  e= [0.04104374 0.17387162 0.19832362 0.19896268 0.20971252 0.21044954
 0.2105615  0.23791189 0.23795829 0.24149255]  max|de|= 0.111  lindep= 0.00842
Old state -> New state
    2     ->     1 
    1     ->     2 
davidson 86 40  |r|= 1.32  e= [0.01714475 0.02361538 0.17387162 0.19896268 0.20971252 0.21044954
 0.2105615  0.23791189 0.23795829 0.24149459]  max|de|= -0.175  lindep= 0.0955
Old state -> New state
    2     ->     0 
    2     ->     1 
root 4 converged  |r|= 3.52e-08  e= 0.20971251539247812  max|de|= -1.7e-11
davidson 87 43  |r|= 1.32  e= [0.1298804  0.17387162 0.17833825 0.19896268 0.20971252 0.21044954
 0.2105615  0.23791189 0.23795829 0.24151076]  max|de|= -0.044  lindep= 0.155
Old state -> New state
    2     ->     1 
    1     ->     2 
davidson 88 46  |r|= 1.43  e= [0.00333929 0.08418193 0.17387162 0.19896268 0.20971252 0.21044954
 0.2105615  0.23791189 0.23795829 0.24150186]  max|de|= -0.127  lindep= 0.107
Old state -> New state
    2     ->     1 
    3     ->     2 
    4     ->     3 
    5     ->     4 
    6     ->     5 
    7     ->     6 
    8     ->     7 
    9     ->     8 
    1     ->     9 
davidson 89 49  |r|= 1.43  e= [0.07620558 0.17387162 0.19896268 0.20971252 0.21044954 0.2105615
 0.23791189 0.23795829 0.2414959  0.27966745]  max|de|= 0.195  lindep= 0.0965
davidson 90 52  |r|= 1.18  e= [0.10719668 0.17387162 0.19896268 0.20971252 0.21044954 0.2105615
 0.23791189 0.23795829 0.24149899 0.27845326]  max|de|= 0.031  lindep= 0.11
davidson 91 55  |r|= 1.07  e= [0.08397732 0.17387162 0.19896268 0.20971252 0.21044954 0.2105615
 0.23791189 0.23795829 0.24149423 0.2800379 ]  max|de|= -0.0232  lindep= 0.037
Old state -> New state
    0     ->     1 
    1     ->     2 
    2     ->     3 
    3     ->     4 
    4     ->     5 
    5     ->     6 
    6     ->     7 
    7     ->     8 
    8     ->     9 
davidson 92 58  |r|= 1.15  e= [0.07663014 0.08621364 0.17387162 0.19896268 0.20971252 0.21044954
 0.2105615  0.23791189 0.23795829 0.24149504]  max|de|= -0.00735  lindep= 0.0318
Old state -> New state
    2     ->     1 
    3     ->     2 
    4     ->     3 
    5     ->     4 
    6     ->     5 
    7     ->     6 
    8     ->     7 
    9     ->     8 
    2     ->     9 
davidson 93 61  |r|= 1.04  e= [0.06916467 0.17387162 0.19896268 0.20971252 0.21044954 0.2105615
 0.23791189 0.23795829 0.24149677 0.26734313]  max|de|= 0.0935  lindep= 0.0562
davidson 94 64  |r|= 0.906  e= [0.04187237 0.17387162 0.19896268 0.20971252 0.21044954 0.2105615
 0.23791189 0.23795829 0.24149297 0.28673772]  max|de|= -0.0273  lindep= 0.0562
Old state -> New state
    3     ->     4 
    4     ->     5 
    5     ->     6 
    6     ->     7 
    7     ->     8 
    8     ->     9 
davidson 95 67  |r|= 0.858  e= [0.03836807 0.17387162 0.19896268 0.20527773 0.20971252 0.21044954
 0.2105615  0.23791189 0.23795829 0.24149589]  max|de|= -0.00443  lindep= 0.0259
Old state -> New state
    1     ->     2 
    2     ->     3 
davidson 96 70  |r|= 0.836  e= [0.03519454 0.16871548 0.17387162 0.19896268 0.20971252 0.21044954
 0.2105615  0.23791189 0.23795829 0.24149545]  max|de|= -0.00516  lindep= 0.017
Old state -> New state
    2     ->     0 
    3     ->     1 
    4     ->     2 
    5     ->     3 
    6     ->     4 
    7     ->     5 
    8     ->     6 
    9     ->     7 
    0     ->     8 
davidson 97 73  |r|= 0.957  e= [0.17387162 0.19896268 0.20971252 0.21044954 0.2105615  0.23791189
 0.23795829 0.24149471 0.2709045  0.27860099]  max|de|= 0.236  lindep= 0.356
Old state -> New state
    8     ->     0 
    0     ->     1 
    1     ->     2 
    2     ->     3 
    3     ->     4 
    4     ->     5 
    5     ->     6 
    6     ->     7 
    7     ->     8 
davidson 98 76  |r|= 1.31  e= [0.02207367 0.17387162 0.19896268 0.20971252 0.21044954 0.2105615
 0.23791189 0.23795829 0.24149571 0.27750984]  max|de|= -0.249  lindep= 0.131
Old state -> New state
    3     ->     0 
davidson 99 79  |r|= 1.11  e= [0.05750046 0.17387162 0.19896268 0.20971252 0.21044954 0.2105615
 0.23791189 0.23795829 0.2414957  0.27755471]  max|de|= -0.152  lindep= 0.113
    CPU time for TDDFT   1578.38 sec, wall time     56.65 sec
TD-SCF states [0, 1, 3, 8, 9] not converged.
Excited State energies (eV)
[1.5646673  4.73128781 5.41405016 5.70656825 5.72662375 5.7296702
 6.47391233 6.47517494 6.57143283 7.5526483 ]
