 
:: initializing oneAPI environment ...
   slurm_script: BASH_VERSION = 4.2.46(1)-release
   args: Using "$@" for setvars.sh arguments: --force
:: advisor -- latest
:: ccl -- latest
:: clck -- latest
:: compiler -- latest
:: dal -- latest
:: debugger -- latest
:: dev-utilities -- latest
:: dnnl -- latest
:: dpcpp-ct -- latest
:: dpl -- latest
:: inspector -- latest
:: intelpython -- latest
:: ipp -- latest
:: ippcp -- latest
:: ipp -- latest
:: itac -- latest
:: mkl -- latest
:: mpi -- latest
:: tbb -- latest
:: vpl -- latest
:: vtune -- latest
:: oneAPI environment initialized ::
 
SLURM_CPUS_PER_TASK = 28
SLURM_MEM_PER_NODE = 127949
#INFO: **** input file is /home/yangjunjie/work/py-ch3-cl/work/step_4/main.py ****
import sys
import pyscf
from pyscf import tdscf

def main(xyz_file, basis="631g*", xc="b3lyp", output="ene.out"):
    xyz = None

    with open(xyz_file, "r") as xyz:
        xyz = xyz.readlines()[2:]
        xyz = "".join(xyz)

    mol = pyscf.gto.Mole()
    mol.atom = xyz
    mol.basis = basis
    mol.verbose = 5
    mol.build()

    if xc is not None and xc != "hf":
        mf = pyscf.scf.RKS(mol)
        mf.xc = xc
        mf.kernel()
    else:
        mf = pyscf.scf.RHF(mol)
        mf.kernel()

    ene_mf = mf.e_tot

    tda = pyscf.tdscf.TDA(mf)
    tda.nstates = 10
    tda.kernel()
    ene_tda = tda.e[:5]
    dip_tda = tda.transition_dipole()[:5]

    rpa = pyscf.tdscf.RPA(mf)
    rpa.nstates = 10
    rpa.kernel()
    ene_rpa = rpa.e[:5]
    dip_rpa = rpa.transition_dipole()[:5]

    with open(output, "w") as f:
        f.write(f"RKS energy: {ene_mf: 12.8f}\n")
        f.write("TDA results:\n")
        for i, (ene, dip) in enumerate(zip(ene_tda, dip_tda)):
            f.write(f" {i:2d} {ene: 12.8f} {dip[0]: 12.8f} {dip[1]: 12.8f} {dip[2]: 12.8f}\n")
        
        f.write("\nRPA results:\n")
        for i, (ene, dip) in enumerate(zip(ene_rpa, dip_rpa)):
            f.write(f" {i:2d} {ene: 12.8f} {dip[0]: 12.8f} {dip[1]: 12.8f} {dip[2]: 12.8f}\n")

if __name__ == "__main__":
    xyz = sys.argv[1]
    main(xyz, basis="631g*", xc="b3lyp", output="out.log")
#INFO: ******************** input file end ********************


System: uname_result(system='Linux', node='pauling037', release='3.10.0-327.36.3.el7.x86_64', version='#1 SMP Thu Oct 20 04:56:07 EDT 2016', machine='x86_64')  Threads 28
Python 3.9.7 (default, Oct 27 2021, 01:23:21) 
[GCC 9.3.0]
numpy 1.21.2  scipy 1.6.2
Date: Tue Sep 27 23:12:24 2022
PySCF version 2.0.1
PySCF path  /home/yangjunjie/packages/pyscf/pyscf-main
GIT ORIG_HEAD 14b880cdc4bf7bb64f3989a147c0b04622efc498
GIT HEAD (branch master) 9d5b5bd309d1cc55fbd1a0ec76e26b5b0c7f76af

[ENV] PYSCF_MAX_MEMORY 127949
[ENV] PYSCF_TMPDIR /scratch/global/yangjunjie/
[CONFIG] conf_file /home/yangjunjie/.pyscf_conf.py
[INPUT] verbose = 5
[INPUT] max_memory = 127949 
[INPUT] num. atoms = 16
[INPUT] num. electrons = 68
[INPUT] charge = 0
[INPUT] spin (= nelec alpha-beta = 2S) = 0
[INPUT] symmetry False subgroup None
[INPUT] Mole.unit = angstrom
[INPUT]  1 C      0.000000010000   1.166621820000   0.992191760000 AA    0.000000018897   2.204595730742   1.874970689450 Bohr
[INPUT]  2 C      0.000000000000   1.189873940000   2.393427790000 AA    0.000000000000   2.248535869357   4.522923022023 Bohr
[INPUT]  3 C     -0.000000010000  -0.012019360000   3.089096480000 AA   -0.000000018897  -0.022713298593   5.837546319558 Bohr
[INPUT]  4 C     -0.000000010000  -1.202458570000   2.371957920000 AA   -0.000000018897  -2.272317373436   4.482350847793 Bohr
[INPUT]  5 C      0.000000000000  -1.155334690000   0.972905850000 AA    0.000000000000  -2.183266146309   1.838525601487 Bohr
[INPUT]  6 N      0.000000000000   0.013455490000   0.304598240000 AA    0.000000000000   0.025427190972   0.575607251625 Bohr
[INPUT]  7 C      0.000000040000   0.006272810000  -1.230493410000 AA    0.000000075589   0.011853892931  -2.325295542982 Bohr
[INPUT]  8 H      0.000000020000   2.081432850000   0.415648370000 AA    0.000000037795   3.933338033173   0.785461583422 Bohr
[INPUT]  9 H      0.000000000000   2.137462420000   2.910092110000 AA    0.000000000000   4.039218575350   5.499277085158 Bohr
[INPUT] 10 H     -0.000000010000  -0.021813660000   4.176937240000 AA   -0.000000018897  -0.041221843174   7.893267423097 Bohr
[INPUT] 11 H     -0.000000020000  -2.159240880000   2.871272010000 AA   -0.000000037795  -4.080373900165   5.425917728029 Bohr
[INPUT] 12 H      0.000000000000  -2.056823210000   0.377272030000 AA    0.000000000000  -3.886832553549   0.712940811159 Bohr
[INPUT] 13 H     -0.000000030000   1.025164100000  -1.612782110000 AA   -0.000000056692   1.937279381736  -3.047716486498 Bohr
[INPUT] 14 H     -0.883821730000  -0.502946760000  -1.609927950000 AA   -1.670181012639  -0.950431631637  -3.042322905782 Bohr
[INPUT] 15 H      0.883821730000  -0.502946700000  -1.609927950000 AA    1.670181012639  -0.950431518254  -3.042322905782 Bohr
[INPUT] 16 Cl    -0.000000010000   0.001562990000  -4.038522870000 AA   -0.000000018897   0.002953623035  -7.631702172092 Bohr
[INPUT] ---------------- BASIS SET ---------------- 
[INPUT] l, kappa, [nprim/nctr], expnt,             c_1 c_2 ...
[INPUT] H
[INPUT] 0    0    [3    /1   ]  18.731137         0.0334946
                                2.8253937         0.23472695
                                0.6401217         0.81375733
[INPUT] 0    0    [1    /1   ]  0.1612778            1
[INPUT] C
[INPUT] 0    0    [6    /1   ]  3047.5249         0.0018347
                                457.36951         0.0140373
                                103.94869         0.0688426
                                29.210155         0.2321844
                                9.286663          0.4679413
                                3.163927          0.362312
[INPUT] 0    0    [3    /1   ]  7.8682724         -0.1193324
                                1.8812885         -0.1608542
                                0.5442493         1.1434564
[INPUT] 0    0    [1    /1   ]  0.1687144            1
[INPUT] 1    0    [3    /1   ]  7.8682724         0.0689991
                                1.8812885         0.316424
                                0.5442493         0.7443083
[INPUT] 1    0    [1    /1   ]  0.1687144            1
[INPUT] 2    0    [1    /1   ]  0.8                  1
[INPUT] N
[INPUT] 0    0    [6    /1   ]  4173.511          0.0018348
                                627.4579          0.013995
                                142.9021          0.068587
                                40.23433          0.232241
                                12.82021          0.46907
                                4.390437          0.360455
[INPUT] 0    0    [3    /1   ]  11.626358         -0.114961
                                2.71628           -0.169118
                                0.772218          1.145852
[INPUT] 0    0    [1    /1   ]  0.2120313            1
[INPUT] 1    0    [3    /1   ]  11.626358         0.06758
                                2.71628           0.323907
                                0.772218          0.740895
[INPUT] 1    0    [1    /1   ]  0.2120313            1
[INPUT] 2    0    [1    /1   ]  0.8                  1
[INPUT] Cl
[INPUT] 0    0    [6    /1   ]  25180.1           0.001833
                                3780.35           0.014034
                                860.474           0.069097
                                242.145           0.237452
                                77.3349           0.483034
                                26.247            0.339856
[INPUT] 0    0    [6    /1   ]  491.765           -0.0022974
                                116.984           -0.030714
                                37.4153           -0.112528
                                13.7834           0.045016
                                5.45215           0.589353
                                2.22588           0.465206
[INPUT] 0    0    [3    /1   ]  3.18649           -0.25183
                                1.14427           0.061589
                                0.420377          1.06018
[INPUT] 0    0    [1    /1   ]  0.142657             1
[INPUT] 1    0    [6    /1   ]  491.765           0.0039894
                                116.984           0.030318
                                37.4153           0.12988
                                13.7834           0.327951
                                5.45215           0.453527
                                2.22588           0.252154
[INPUT] 1    0    [3    /1   ]  3.18649           -0.014299
                                1.14427           0.323572
                                0.420377          0.743507
[INPUT] 1    0    [1    /1   ]  0.142657             1
[INPUT] 2    0    [1    /1   ]  0.75                 1

nuclear repulsion = 380.089448735833
number of shells = 66
number of NR pGTOs = 272
number of NR cGTOs = 132
basis = 631g*
ecp = {}
CPU time:         0.37


******** <class 'pyscf.dft.rks.RKS'> ********
method = RKS
initial guess = minao
damping factor = 0
level_shift factor = 0
DIIS = <class 'pyscf.scf.diis.CDIIS'>
diis_start_cycle = 1
diis_space = 8
SCF conv_tol = 1e-09
SCF conv_tol_grad = None
SCF max_cycles = 50
direct_scf = True
direct_scf_tol = 1e-13
chkfile to save SCF result = /scratch/global/yangjunjie/tmp68i1a9f7
max_memory 127949 MB (current use 81 MB)
XC library pyscf.dft.libxc version 5.2.0
    S. Lehtola, C. Steigemann, M. J. Oliveira, and M. A. Marques, SoftwareX 7, 1 (2018)
XC functionals = b3lyp
    P. A. M. Dirac, Math. Proc. Cambridge Philos. Soc. 26, 376 (1930)
    F. Bloch, Z. Phys. 57, 545 (1929)
    A. D. Becke, Phys. Rev. A 38, 3098 (1988)
    C. Lee, W. Yang, and R. G. Parr, Phys. Rev. B 37, 785 (1988)
    B. Miehlich, A. Savin, H. Stoll, and H. Preuss, Chem. Phys. Lett. 157, 200 (1989)
    S. H. Vosko, L. Wilk, and M. Nusair, Can. J. Phys. 58, 1200 (1980)
radial grids: 
    Treutler-Ahlrichs [JCP 102, 346 (1995); DOI:10.1063/1.469408] (M4) radial grids
    
becke partition: Becke, JCP 88, 2547 (1988); DOI:10.1063/1.454033
pruning grids: <function nwchem_prune at 0x7fa9825aeee0>
grids dens level: 3
symmetrized grids: False
atomic radii adjust function: <function treutler_atomic_radii_adjust at 0x7fa9825aee50>
small_rho_cutoff = 1e-07
Set gradient conv threshold to 3.16228e-05
atom C rad-grids = 75, ang-grids = [ 50  50  50  50  50  50  50  50  50  50  50  50  50  50  50  50  50  50
  50  50  50  50  50  86  86  86  86  86  86  86  86  86  86 266 266 266
 266 266 266 266 302 302 302 302 302 302 302 302 302 302 302 302 302 302
 302 302 302 302 302 302 266 266 266 266 266 266 266 266 266 266 266 266
 266 266 266]
atom N rad-grids = 75, ang-grids = [ 50  50  50  50  50  50  50  50  50  50  50  50  50  50  50  50  50  50
  50  50  50  50  50  86  86  86  86  86  86  86  86  86 266 266 266 266
 266 266 266 302 302 302 302 302 302 302 302 302 302 302 302 302 302 302
 302 302 302 302 266 266 266 266 266 266 266 266 266 266 266 266 266 266
 266 266 266]
atom H rad-grids = 50, ang-grids = [ 50  50  50  50  50  50  50  50  50  50  50  50  50  50  86  86  86  86
 266 266 266 266 302 302 302 302 302 302 302 302 302 302 302 302 302 266
 266 266 266 266 266 266 266 266 266 266 266 266 266 266]
atom Cl rad-grids = 80, ang-grids = [ 50  50  50  50  50  50  50  50  50  50  50  50  50  50  50  50  50  50
  50  50  50  50  50  50  86  86  86  86  86  86  86  86  86  86  86  86
  86 350 350 350 350 350 350 350 350 350 434 434 434 434 434 434 434 434
 434 434 434 434 434 434 434 434 434 434 350 350 350 350 350 350 350 350
 350 350 350 350 350 350 350 350]
tot grids = 196530
Drop grids 33625
    CPU time for setting up grids      2.99 sec, wall time      0.16 sec
nelec by numeric integration = 67.97670661925778
    CPU time for vxc      6.09 sec, wall time      0.22 sec
E1 = -1773.4268310949085  Ecoul = 714.6927783636462  Exc = -70.38418335047604
init E= -749.028787345906
cond(S) = 6465.520124180498
    CPU time for initialize scf     16.84 sec, wall time      0.73 sec
  HOMO = -0.292253436962952  LUMO = -0.104537529049022
  mo_energy =
[-1.01593472e+02 -1.44188689e+01 -1.02915311e+01 -1.02903172e+01
 -1.02899719e+01 -1.02840766e+01 -1.02835815e+01 -1.02834377e+01
 -9.53313240e+00 -7.28873435e+00 -7.28872019e+00 -7.28871902e+00
 -1.11686363e+00 -9.58647705e-01 -8.84277573e-01 -8.47934791e-01
 -8.06380191e-01 -7.17191225e-01 -7.01543930e-01 -5.81776409e-01
 -5.38300645e-01 -5.19236712e-01 -4.86442706e-01 -4.82624450e-01
 -4.67340525e-01 -4.30559642e-01 -4.11761313e-01 -3.99495379e-01
 -3.93841273e-01 -3.55911880e-01 -3.54722264e-01 -3.47430753e-01
 -3.21119700e-01 -2.92253437e-01 -1.04537529e-01 -8.14206708e-02
  3.15377435e-02  5.85453587e-02  7.92374876e-02  9.28096116e-02
  9.41312495e-02  1.16624250e-01  1.27466449e-01  1.38452165e-01
  1.38547057e-01  1.54230263e-01  2.27503129e-01  2.35123862e-01
  2.48280302e-01  2.63760086e-01  3.39397060e-01  3.82077966e-01
  4.03330976e-01  4.20276406e-01  4.23721930e-01  4.52993210e-01
  4.63782661e-01  4.73285752e-01  4.95750946e-01  5.21095342e-01
  5.34757587e-01  5.40091598e-01  5.43540182e-01  5.51122024e-01
  5.70031536e-01  5.72060481e-01  5.88236726e-01  6.13607433e-01
  6.47074610e-01  6.71274233e-01  7.11032093e-01  7.58399361e-01
  7.70183316e-01  7.72123938e-01  7.73868965e-01  7.82012257e-01
  8.04755576e-01  8.08383338e-01  8.10831673e-01  8.27190472e-01
  8.60181442e-01  8.67019918e-01  8.97337171e-01  8.97750577e-01
  9.10591157e-01  9.46084270e-01  9.84530699e-01  1.00569407e+00
  1.04269427e+00  1.07102380e+00  1.12227521e+00  1.16398240e+00
  1.17636695e+00  1.20876677e+00  1.29174572e+00  1.34392473e+00
  1.36313355e+00  1.40140472e+00  1.40853500e+00  1.41191296e+00
  1.44279275e+00  1.47361792e+00  1.66046418e+00  1.72463212e+00
  1.77132161e+00  1.80379524e+00  1.83429293e+00  1.85637328e+00
  1.86665552e+00  1.90949766e+00  1.97349969e+00  2.05162996e+00
  2.07098924e+00  2.08145232e+00  2.08558422e+00  2.12021562e+00
  2.16830197e+00  2.21772661e+00  2.23816109e+00  2.25747222e+00
  2.33641581e+00  2.35148664e+00  2.48892050e+00  2.51347445e+00
  2.60002871e+00  2.60765413e+00  2.65875744e+00  2.67765173e+00
  2.69540068e+00  2.77909024e+00  2.96261386e+00  3.33873776e+00]
nelec by numeric integration = 68.0000857120418
    CPU time for vxc      5.98 sec, wall time      0.21 sec
E1 = -1780.0123374398916  Ecoul = 722.7262825499391  Exc = -70.78359758400453
cycle= 1 E= -747.980203738124  delta_E= 1.05  |g|= 0.573  |ddm|= 3.84
    CPU time for cycle= 1      6.47 sec, wall time      0.23 sec
  HOMO = -0.0274102447400881  LUMO = -0.0121506113403637
  mo_energy =
[-1.00948941e+02 -1.46855919e+01 -1.03748329e+01 -1.03728950e+01
 -1.02121359e+01 -1.02007764e+01 -1.02006928e+01 -1.01875969e+01
 -8.94171392e+00 -6.69287819e+00 -6.69269354e+00 -6.69268247e+00
 -1.17049856e+00 -9.03257486e-01 -8.93617155e-01 -7.87287150e-01
 -7.54657435e-01 -7.13306629e-01 -6.16144068e-01 -5.98314676e-01
 -5.93808600e-01 -5.58740989e-01 -5.33534551e-01 -5.28147224e-01
 -4.45050650e-01 -4.39214969e-01 -4.32058392e-01 -4.19200921e-01
 -4.16596713e-01 -3.68517274e-01 -3.63546450e-01 -1.54650598e-01
 -1.03317466e-01 -2.74102447e-02 -1.21506113e-02 -1.12231430e-02
  1.75601117e-02  5.28465622e-02  5.77989889e-02  6.01316727e-02
  8.50838854e-02  1.04914789e-01  1.12587200e-01  1.37704920e-01
  1.46126673e-01  1.79316340e-01  1.86651307e-01  2.10882029e-01
  2.30942012e-01  2.49775901e-01  3.53529386e-01  3.65144738e-01
  3.97677682e-01  4.29501533e-01  4.46540465e-01  4.79990725e-01
  4.83145884e-01  4.98562981e-01  5.17993467e-01  5.21818041e-01
  5.54531524e-01  5.59197597e-01  5.72571144e-01  5.87469763e-01
  6.13677032e-01  6.55863170e-01  6.76690230e-01  7.06590295e-01
  7.09966410e-01  7.27465782e-01  7.34675644e-01  7.34745011e-01
  7.48135366e-01  7.83178975e-01  7.91181318e-01  8.32806749e-01
  8.48005854e-01  8.62407897e-01  8.86497150e-01  9.02365906e-01
  9.13720263e-01  9.32331118e-01  9.99563406e-01  1.01123583e+00
  1.01419608e+00  1.09861315e+00  1.11928634e+00  1.12346018e+00
  1.14751355e+00  1.22406314e+00  1.23616201e+00  1.23670824e+00
  1.24785927e+00  1.25110295e+00  1.28637160e+00  1.34137055e+00
  1.35711197e+00  1.36101777e+00  1.37379297e+00  1.40525761e+00
  1.41140466e+00  1.41351796e+00  1.60246834e+00  1.71614339e+00
  1.72051000e+00  1.77757040e+00  1.82847880e+00  1.84475861e+00
  1.85480100e+00  1.90719428e+00  1.95832209e+00  2.01308008e+00
  2.01998244e+00  2.05977876e+00  2.06991037e+00  2.08013695e+00
  2.17707696e+00  2.19885094e+00  2.23634206e+00  2.27540024e+00
  2.32036071e+00  2.32673013e+00  2.45953463e+00  2.48161430e+00
  2.57206794e+00  2.58994218e+00  2.63767611e+00  2.65364915e+00
  2.67658157e+00  2.75154353e+00  2.92929353e+00  3.31482724e+00]
nelec by numeric integration = 68.00012427257099
    CPU time for vxc      6.30 sec, wall time      0.23 sec
E1 = -1777.353908429223  Ecoul = 725.1391882722215  Exc = -70.52430141885293
cycle= 2 E= -742.649572840022  delta_E= 5.33  |g|= 2.81  |ddm|=    5
    CPU time for cycle= 2      6.80 sec, wall time      0.24 sec
  HOMO = -0.171287036225164  LUMO = -0.0690697446129289
  mo_energy =
[-1.01268352e+02 -1.45155852e+01 -1.02450151e+01 -1.02442815e+01
 -1.01775871e+01 -1.01313410e+01 -1.01157992e+01 -1.01156616e+01
 -9.22700394e+00 -6.98173817e+00 -6.98172635e+00 -6.98002926e+00
 -1.05209628e+00 -8.09949540e-01 -7.98572613e-01 -7.27970660e-01
 -6.63712068e-01 -6.36713688e-01 -6.26027671e-01 -5.55761099e-01
 -5.10221452e-01 -4.97550121e-01 -4.96540886e-01 -4.59775456e-01
 -4.53213136e-01 -4.07384283e-01 -3.95609973e-01 -3.66588260e-01
 -3.64553625e-01 -2.94728135e-01 -2.74671110e-01 -1.74637051e-01
 -1.71596707e-01 -1.71287036e-01 -6.90697446e-02 -2.61319775e-02
  5.91229839e-02  1.09537855e-01  1.14615577e-01  1.27441526e-01
  1.27810620e-01  1.39088547e-01  1.58435363e-01  1.62962776e-01
  1.77502467e-01  1.81148264e-01  2.56712700e-01  2.72062523e-01
  2.98998765e-01  3.08029642e-01  4.06989619e-01  4.39037231e-01
  4.64485370e-01  4.70743712e-01  5.07789455e-01  5.37100482e-01
  5.39558610e-01  5.47096299e-01  5.60042127e-01  5.67751125e-01
  5.75126221e-01  5.94946233e-01  5.97942453e-01  6.24652766e-01
  6.31026949e-01  6.34293780e-01  6.55045724e-01  6.60674406e-01
  7.18933248e-01  7.26945048e-01  7.60453600e-01  7.96281543e-01
  8.02014896e-01  8.06953194e-01  8.47315214e-01  8.55389335e-01
  8.75910248e-01  8.88359591e-01  9.21374075e-01  9.47993487e-01
  9.60260023e-01  9.89882375e-01  1.00377985e+00  1.03244603e+00
  1.03282483e+00  1.04952187e+00  1.05083318e+00  1.07690550e+00
  1.08362768e+00  1.13691406e+00  1.16587823e+00  1.19411726e+00
  1.21984023e+00  1.26989217e+00  1.31168636e+00  1.35451826e+00
  1.42767849e+00  1.42916088e+00  1.45655956e+00  1.47782240e+00
  1.49402648e+00  1.50074550e+00  1.69026483e+00  1.78541910e+00
  1.79501827e+00  1.85699100e+00  1.87675287e+00  1.90951790e+00
  1.93545547e+00  1.97549225e+00  2.04868152e+00  2.10209652e+00
  2.11527470e+00  2.14252111e+00  2.14418351e+00  2.16912927e+00
  2.24869105e+00  2.28734762e+00  2.30006081e+00  2.31813021e+00
  2.38265033e+00  2.38732577e+00  2.54882320e+00  2.56837211e+00
  2.66281363e+00  2.67320863e+00  2.72997737e+00  2.74529423e+00
  2.76501701e+00  2.82304530e+00  3.01862525e+00  3.40582668e+00]
nelec by numeric integration = 68.00009253601766
    CPU time for vxc      6.17 sec, wall time      0.24 sec
E1 = -1774.8181327718742  Ecoul = 717.0439599072888  Exc = -70.3290029703162
cycle= 3 E= -748.013727099069  delta_E= -5.36  |g|= 0.504  |ddm|= 4.57
    CPU time for cycle= 3      6.68 sec, wall time      0.26 sec
  HOMO = -0.134541010043587  LUMO = -0.111039664215738
  mo_energy =
[-1.01260658e+02 -1.44478275e+01 -1.02921640e+01 -1.02920820e+01
 -1.02902500e+01 -1.02746876e+01 -1.02741563e+01 -1.02054796e+01
 -9.20676024e+00 -6.96238025e+00 -6.96237927e+00 -6.96171947e+00
 -1.05149517e+00 -8.96486930e-01 -8.41419947e-01 -7.49198954e-01
 -7.18783597e-01 -6.86374462e-01 -6.00764020e-01 -5.84433190e-01
 -5.66505512e-01 -5.43663259e-01 -5.04788349e-01 -5.02971045e-01
 -5.01078214e-01 -4.44239043e-01 -4.27619706e-01 -4.16707807e-01
 -4.06576570e-01 -3.55294263e-01 -3.34343100e-01 -1.37781912e-01
 -1.34907909e-01 -1.34541010e-01 -1.11039664e-01 -8.70910041e-02
  3.04684710e-02  6.23079685e-02  8.31626617e-02  8.91981837e-02
  1.10377547e-01  1.27933344e-01  1.32516535e-01  1.47130576e-01
  1.67576094e-01  1.87138166e-01  2.23009869e-01  2.34608387e-01
  2.46501054e-01  2.69169466e-01  3.74893540e-01  3.92125523e-01
  4.37766536e-01  4.60915517e-01  4.81950673e-01  4.89105370e-01
  5.07009882e-01  5.22668663e-01  5.25846655e-01  5.34223427e-01
  5.36628262e-01  5.62304974e-01  5.69611812e-01  5.70905146e-01
  5.98331958e-01  6.00964891e-01  6.07389308e-01  6.70184851e-01
  6.79028662e-01  7.30104804e-01  7.48034312e-01  7.66295428e-01
  7.66968951e-01  7.91218549e-01  8.01899712e-01  8.08279080e-01
  8.51298177e-01  8.58990406e-01  8.97448978e-01  9.04874245e-01
  9.19391281e-01  9.68723653e-01  9.96740747e-01  1.02311653e+00
  1.03790725e+00  1.07399164e+00  1.07401159e+00  1.08855405e+00
  1.09594925e+00  1.10459169e+00  1.14781412e+00  1.15557636e+00
  1.16622371e+00  1.28793144e+00  1.29124277e+00  1.32822437e+00
  1.36501362e+00  1.39108908e+00  1.39267420e+00  1.40165027e+00
  1.43087562e+00  1.45524180e+00  1.64708422e+00  1.73480882e+00
  1.77820617e+00  1.80500442e+00  1.86021637e+00  1.86290377e+00
  1.87620344e+00  1.92424810e+00  1.97532445e+00  2.04665038e+00
  2.07239397e+00  2.07747323e+00  2.09707919e+00  2.11512353e+00
  2.18752168e+00  2.21774885e+00  2.25982279e+00  2.29210121e+00
  2.36029749e+00  2.36467810e+00  2.48441425e+00  2.51116585e+00
  2.59950770e+00  2.60484968e+00  2.66559412e+00  2.68263287e+00
  2.70171455e+00  2.79260982e+00  2.96590394e+00  3.34536891e+00]
nelec by numeric integration = 68.00009023445868
    CPU time for vxc      6.05 sec, wall time      0.22 sec
E1 = -1775.7814100492687  Ecoul = 718.0154639899604  Exc = -70.40900027020245
cycle= 4 E= -748.085497593678  delta_E= -0.0718  |g|= 0.132  |ddm|= 0.723
    CPU time for cycle= 4      6.66 sec, wall time      0.24 sec
  HOMO = -0.16205780641342  LUMO = -0.118560706641216
  mo_energy =
[-1.01373734e+02 -1.44899634e+01 -1.03160844e+01 -1.03159111e+01
 -1.02773513e+01 -1.02770725e+01 -1.02679743e+01 -1.02440486e+01
 -9.29472356e+00 -7.05290677e+00 -7.05239734e+00 -7.05224628e+00
 -1.07317141e+00 -8.96452285e-01 -8.53772345e-01 -7.63371497e-01
 -7.29150923e-01 -6.97277007e-01 -6.25908768e-01 -6.00101993e-01
 -5.75105944e-01 -5.50871730e-01 -5.19154597e-01 -5.14525013e-01
 -5.13008546e-01 -4.48664672e-01 -4.36145408e-01 -4.27147177e-01
 -4.24284332e-01 -3.63237824e-01 -3.43752472e-01 -1.65768921e-01
 -1.62063267e-01 -1.62057806e-01 -1.18560707e-01 -9.37672306e-02
  2.60100510e-02  5.70645764e-02  7.70505714e-02  8.30409906e-02
  1.03367365e-01  1.20043757e-01  1.23055533e-01  1.39103515e-01
  1.56616156e-01  1.75479442e-01  2.16750174e-01  2.25050271e-01
  2.39934950e-01  2.59666648e-01  3.66833214e-01  3.84030860e-01
  4.27919027e-01  4.54250427e-01  4.66813999e-01  4.84506616e-01
  4.95298137e-01  5.14747634e-01  5.21678336e-01  5.29282455e-01
  5.33943747e-01  5.48943343e-01  5.60214641e-01  5.63083428e-01
  5.84482117e-01  5.92331327e-01  5.93819448e-01  6.59794232e-01
  6.61978152e-01  7.14554942e-01  7.36520044e-01  7.58188236e-01
  7.70170201e-01  7.79342980e-01  7.89989968e-01  7.91694705e-01
  8.45616864e-01  8.56112483e-01  8.80017859e-01  8.96151024e-01
  9.10912479e-01  9.55802674e-01  9.82161484e-01  1.01256703e+00
  1.03096524e+00  1.03793112e+00  1.03830865e+00  1.05315163e+00
  1.06702515e+00  1.09934287e+00  1.12700638e+00  1.14506749e+00
  1.15663863e+00  1.26575085e+00  1.27730022e+00  1.31959402e+00
  1.35437165e+00  1.38300847e+00  1.38726268e+00  1.40158528e+00
  1.41920599e+00  1.44157357e+00  1.63688781e+00  1.72736562e+00
  1.76459845e+00  1.79427059e+00  1.84398263e+00  1.85788457e+00
  1.86277944e+00  1.91259493e+00  1.96999055e+00  2.03684339e+00
  2.05998346e+00  2.06803764e+00  2.08876807e+00  2.10429136e+00
  2.17991343e+00  2.20800225e+00  2.25202221e+00  2.27340529e+00
  2.34495755e+00  2.34554466e+00  2.47652448e+00  2.50622028e+00
  2.59201887e+00  2.59376554e+00  2.65557631e+00  2.67390348e+00
  2.69617560e+00  2.77705753e+00  2.95339243e+00  3.33558679e+00]
nelec by numeric integration = 68.00008902387084
    CPU time for vxc      6.03 sec, wall time      0.22 sec
E1 = -1777.3510495924581  Ecoul = 719.6968365957209  Exc = -70.52305982276219
cycle= 5 E= -748.087824083667  delta_E= -0.00233  |g|= 0.08  |ddm|= 0.254
    CPU time for cycle= 5      6.56 sec, wall time      0.23 sec
  HOMO = -0.144021587434652  LUMO = -0.11889675640233
  mo_energy =
[-1.01331639e+02 -1.44884383e+01 -1.03112319e+01 -1.03097738e+01
 -1.02830449e+01 -1.02736144e+01 -1.02734450e+01 -1.02294720e+01
 -9.25908372e+00 -7.01658886e+00 -7.01635401e+00 -7.01586324e+00
 -1.07100040e+00 -8.99105702e-01 -8.52778836e-01 -7.61387721e-01
 -7.29842715e-01 -6.97325063e-01 -6.11264894e-01 -5.95200363e-01
 -5.76209465e-01 -5.52646507e-01 -5.17710869e-01 -5.14591793e-01
 -5.13417781e-01 -4.51470646e-01 -4.37341005e-01 -4.25811875e-01
 -4.20252886e-01 -3.64730686e-01 -3.43648557e-01 -1.47749465e-01
 -1.44894090e-01 -1.44021587e-01 -1.18896756e-01 -9.35468825e-02
  2.44447980e-02  5.52488013e-02  7.57033857e-02  8.14172474e-02
  1.02498750e-01  1.19647519e-01  1.22755694e-01  1.40006267e-01
  1.58728127e-01  1.78993514e-01  2.14833433e-01  2.24777654e-01
  2.38729550e-01  2.60020320e-01  3.65781968e-01  3.83918323e-01
  4.27918204e-01  4.52228758e-01  4.74098293e-01  4.83119654e-01
  4.95337221e-01  5.14259475e-01  5.19980143e-01  5.28017736e-01
  5.32663390e-01  5.54815045e-01  5.61310384e-01  5.64998872e-01
  5.91408235e-01  5.96394999e-01  6.02719079e-01  6.62332845e-01
  6.69319569e-01  7.19821434e-01  7.38567313e-01  7.57918308e-01
  7.65295862e-01  7.83708302e-01  7.91526015e-01  7.93109880e-01
  8.44477532e-01  8.53625613e-01  8.84649651e-01  8.97251505e-01
  9.10597389e-01  9.56152332e-01  9.85409247e-01  1.01408061e+00
  1.02927682e+00  1.06081466e+00  1.06099458e+00  1.07429888e+00
  1.08454763e+00  1.09779633e+00  1.13453828e+00  1.14545721e+00
  1.15601120e+00  1.27603307e+00  1.27862868e+00  1.31819853e+00
  1.35484564e+00  1.38128106e+00  1.38499053e+00  1.39763423e+00
  1.41965974e+00  1.44187032e+00  1.63605720e+00  1.72721925e+00
  1.76621392e+00  1.79387327e+00  1.84763159e+00  1.85483637e+00
  1.86423051e+00  1.91427876e+00  1.96864799e+00  2.03694199e+00
  2.06028555e+00  2.06797983e+00  2.08840110e+00  2.10354893e+00
  2.17931968e+00  2.20791936e+00  2.25046213e+00  2.27778471e+00
  2.34771420e+00  2.34830199e+00  2.47618196e+00  2.50429858e+00
  2.59096498e+00  2.59299069e+00  2.65556975e+00  2.67324284e+00
  2.69454868e+00  2.77936909e+00  2.95371761e+00  3.33526479e+00]
nelec by numeric integration = 68.00008959561627
    CPU time for vxc      6.10 sec, wall time      0.22 sec
E1 = -1776.8161404342436  Ecoul = 719.109633989706  Exc = -70.47243304889093
cycle= 6 E= -748.089490757596  delta_E= -0.00167  |g|= 0.0489  |ddm|= 0.346
    CPU time for cycle= 6      6.63 sec, wall time      0.24 sec
  HOMO = -0.146390290856786  LUMO = -0.115882023032363
  mo_energy =
[-1.01330489e+02 -1.44813797e+01 -1.03077070e+01 -1.03064426e+01
 -1.02740634e+01 -1.02717478e+01 -1.02712697e+01 -1.02268505e+01
 -9.25920795e+00 -7.01689168e+00 -7.01625151e+00 -7.01565462e+00
 -1.06726534e+00 -8.95398543e-01 -8.49941502e-01 -7.58654029e-01
 -7.26699222e-01 -6.94599214e-01 -6.10962241e-01 -5.94721575e-01
 -5.72758527e-01 -5.50441198e-01 -5.14694917e-01 -5.12294056e-01
 -5.10197910e-01 -4.48500387e-01 -4.34274297e-01 -4.23853690e-01
 -4.19132757e-01 -3.61555392e-01 -3.41185136e-01 -1.49624980e-01
 -1.46855747e-01 -1.46390291e-01 -1.15882023e-01 -9.07717649e-02
  2.64110380e-02  5.82633521e-02  7.72544887e-02  8.32865281e-02
  1.04493859e-01  1.21375933e-01  1.24799744e-01  1.41022926e-01
  1.59829959e-01  1.79447419e-01  2.17636373e-01  2.27324708e-01
  2.41181605e-01  2.62024910e-01  3.67896668e-01  3.86318230e-01
  4.30249239e-01  4.55155959e-01  4.74561548e-01  4.85531297e-01
  4.98085715e-01  5.16441221e-01  5.22548586e-01  5.30760663e-01
  5.35137361e-01  5.55165259e-01  5.63274715e-01  5.66682059e-01
  5.93914702e-01  5.95315078e-01  6.01613987e-01  6.64051644e-01
  6.69219047e-01  7.20732747e-01  7.40358833e-01  7.59792756e-01
  7.68685677e-01  7.84609533e-01  7.94157792e-01  7.94283349e-01
  8.46892552e-01  8.56117839e-01  8.85608432e-01  8.98854138e-01
  9.12698622e-01  9.58370951e-01  9.86339760e-01  1.01581641e+00
  1.03183197e+00  1.05827471e+00  1.05851988e+00  1.07198848e+00
  1.08353915e+00  1.09987134e+00  1.13539076e+00  1.14770754e+00
  1.15936748e+00  1.27573723e+00  1.28152107e+00  1.32098111e+00
  1.35768306e+00  1.38357274e+00  1.38866705e+00  1.40151748e+00
  1.42233295e+00  1.44453250e+00  1.63906014e+00  1.73030267e+00
  1.76885932e+00  1.79703372e+00  1.84982418e+00  1.85813130e+00
  1.86670760e+00  1.91659109e+00  1.97202919e+00  2.03975301e+00
  2.06367255e+00  2.07074218e+00  2.09151802e+00  2.10700392e+00
  2.18227599e+00  2.21075686e+00  2.25399990e+00  2.27939295e+00
  2.35008196e+00  2.35098059e+00  2.47895702e+00  2.50781644e+00
  2.59422498e+00  2.59635060e+00  2.65861981e+00  2.67663562e+00
  2.69833659e+00  2.78215867e+00  2.95703561e+00  3.33863996e+00]
nelec by numeric integration = 68.00008976379075
    CPU time for vxc      6.13 sec, wall time      0.22 sec
E1 = -1776.7008394984664  Ecoul = 718.9874114836489  Exc = -70.46637825914695
cycle= 7 E= -748.090357538132  delta_E= -0.000867  |g|= 0.0228  |ddm|= 0.0616
    CPU time for cycle= 7      6.67 sec, wall time      0.24 sec
  HOMO = -0.150055870355162  LUMO = -0.114944507708736
  mo_energy =
[-1.01335918e+02 -1.44808391e+01 -1.03054860e+01 -1.03043112e+01
 -1.02739137e+01 -1.02695618e+01 -1.02692423e+01 -1.02276924e+01
 -9.26436802e+00 -7.02218567e+00 -7.02137882e+00 -7.02077765e+00
 -1.06611797e+00 -8.94051384e-01 -8.48180964e-01 -7.58181492e-01
 -7.25192829e-01 -6.93247694e-01 -6.13078840e-01 -5.95299683e-01
 -5.71185331e-01 -5.48779322e-01 -5.13691142e-01 -5.10556839e-01
 -5.09661938e-01 -4.46928826e-01 -4.32991825e-01 -4.23396766e-01
 -4.19311334e-01 -3.60659417e-01 -3.39415723e-01 -1.53095607e-01
 -1.50227275e-01 -1.50055870e-01 -1.14944508e-01 -8.90368351e-02
  2.75058782e-02  5.97264552e-02  7.84412356e-02  8.42411238e-02
  1.05452233e-01  1.22487819e-01  1.25574685e-01  1.41199221e-01
  1.59993699e-01  1.79080363e-01  2.18996345e-01  2.28312434e-01
  2.42466985e-01  2.63010669e-01  3.68958295e-01  3.87673541e-01
  4.31538810e-01  4.56560608e-01  4.73685157e-01  4.86418361e-01
  4.99577012e-01  5.17997340e-01  5.24061234e-01  5.32056118e-01
  5.35971181e-01  5.54465500e-01  5.64064018e-01  5.66943830e-01
  5.93195359e-01  5.95203390e-01  5.99705069e-01  6.64848111e-01
  6.67708990e-01  7.20420778e-01  7.41069460e-01  7.61205457e-01
  7.69863501e-01  7.84405829e-01  7.94762754e-01  7.95007402e-01
  8.47888107e-01  8.57440531e-01  8.85237727e-01  8.99200681e-01
  9.13703994e-01  9.59495044e-01  9.86155722e-01  1.01673248e+00
  1.03300597e+00  1.05390095e+00  1.05419503e+00  1.06794676e+00
  1.08050126e+00  1.10092732e+00  1.13465634e+00  1.14876115e+00
  1.16094049e+00  1.27403700e+00  1.28260580e+00  1.32200283e+00
  1.35903372e+00  1.38498125e+00  1.39014883e+00  1.40304763e+00
  1.42418528e+00  1.44569145e+00  1.64055037e+00  1.73164507e+00
  1.76963363e+00  1.79804217e+00  1.85038175e+00  1.85956913e+00
  1.86781851e+00  1.91761362e+00  1.97358691e+00  2.04141186e+00
  2.06510562e+00  2.07235316e+00  2.09251942e+00  2.10843575e+00
  2.18332815e+00  2.21253240e+00  2.25522954e+00  2.27943178e+00
  2.35092516e+00  2.35167996e+00  2.48060565e+00  2.50912146e+00
  2.59576232e+00  2.59794188e+00  2.66034098e+00  2.67815024e+00
  2.69956808e+00  2.78297488e+00  2.95844189e+00  3.34016332e+00]
nelec by numeric integration = 68.00008967861888
    CPU time for vxc      6.34 sec, wall time      0.24 sec
E1 = -1776.735590899528  Ecoul = 719.027214203908  Exc = -70.47172047017334
cycle= 8 E= -748.090648429961  delta_E= -0.000291  |g|= 0.00411  |ddm|= 0.0621
    CPU time for cycle= 8      6.89 sec, wall time      0.25 sec
  HOMO = -0.150772692647513  LUMO = -0.114250029809759
  mo_energy =
[-1.01335123e+02 -1.44798531e+01 -1.03052270e+01 -1.03041767e+01
 -1.02724849e+01 -1.02690316e+01 -1.02686481e+01 -1.02274316e+01
 -9.26414385e+00 -7.02191112e+00 -7.02108902e+00 -7.02049994e+00
 -1.06550836e+00 -8.93215380e-01 -8.47606934e-01 -7.57743275e-01
 -7.24465317e-01 -6.92699661e-01 -6.13393368e-01 -5.95001982e-01
 -5.70470930e-01 -5.48087116e-01 -5.13172260e-01 -5.09987088e-01
 -5.09082733e-01 -4.46148106e-01 -4.32357272e-01 -4.23069238e-01
 -4.19268563e-01 -3.60005671e-01 -3.38843605e-01 -1.53755790e-01
 -1.50887732e-01 -1.50772693e-01 -1.14250030e-01 -8.84150825e-02
  2.80584769e-02  6.04450415e-02  7.89124054e-02  8.47220451e-02
  1.05943106e-01  1.22972934e-01  1.26035168e-01  1.41396832e-01
  1.60135365e-01  1.79001831e-01  2.19663694e-01  2.28848783e-01
  2.43083581e-01  2.63434765e-01  3.69472226e-01  3.88226904e-01
  4.32027458e-01  4.57252835e-01  4.73589037e-01  4.86975801e-01
  5.00157022e-01  5.18546901e-01  5.24719076e-01  5.32661101e-01
  5.36560339e-01  5.54504091e-01  5.64462244e-01  5.67246751e-01
  5.92772742e-01  5.95811030e-01  5.99434964e-01  6.65266317e-01
  6.67476414e-01  7.20460847e-01  7.41413615e-01  7.61707011e-01
  7.70678059e-01  7.84528449e-01  7.95192804e-01  7.95399553e-01
  8.48437237e-01  8.58113666e-01  8.85270546e-01  8.99504442e-01
  9.14168771e-01  9.59986858e-01  9.86206361e-01  1.01717605e+00
  1.03364110e+00  1.05320167e+00  1.05350263e+00  1.06733163e+00
  1.08004128e+00  1.10155955e+00  1.13473211e+00  1.14930389e+00
  1.16163653e+00  1.27378855e+00  1.28314019e+00  1.32261474e+00
  1.35964026e+00  1.38561724e+00  1.39096582e+00  1.40391490e+00
  1.42479115e+00  1.44626487e+00  1.64121921e+00  1.73228531e+00
  1.77010419e+00  1.79869075e+00  1.85070610e+00  1.86038374e+00
  1.86831390e+00  1.91810224e+00  1.97429461e+00  2.04204722e+00
  2.06574173e+00  2.07297314e+00  2.09313971e+00  2.10913238e+00
  2.18395023e+00  2.21317715e+00  2.25596181e+00  2.27960845e+00
  2.35132370e+00  2.35210215e+00  2.48125345e+00  2.50987508e+00
  2.59646786e+00  2.59864619e+00  2.66098963e+00  2.67884491e+00
  2.70033984e+00  2.78346822e+00  2.95908086e+00  3.34086024e+00]
nelec by numeric integration = 68.00008968631968
    CPU time for vxc      6.19 sec, wall time      0.22 sec
E1 = -1776.720544447942  Ecoul = 719.0112287954508  Exc = -70.4707888818384
cycle= 9 E= -748.090655798497  delta_E= -7.37e-06  |g|= 0.000742  |ddm|= 0.0109
    CPU time for cycle= 9      6.71 sec, wall time      0.24 sec
  HOMO = -0.150773483828823  LUMO = -0.114239486783304
  mo_energy =
[-1.01335211e+02 -1.44799381e+01 -1.03051048e+01 -1.03039707e+01
 -1.02724119e+01 -1.02691745e+01 -1.02688156e+01 -1.02274880e+01
 -9.26419966e+00 -7.02196879e+00 -7.02114830e+00 -7.02055948e+00
 -1.06549780e+00 -8.93246287e-01 -8.47592342e-01 -7.57748517e-01
 -7.24487793e-01 -6.92691916e-01 -6.13396284e-01 -5.94998546e-01
 -5.70478206e-01 -5.48124412e-01 -5.13165527e-01 -5.09985004e-01
 -5.09093962e-01 -4.46180531e-01 -4.32369304e-01 -4.23067946e-01
 -4.19251950e-01 -3.60020033e-01 -3.38839518e-01 -1.53754773e-01
 -1.50889413e-01 -1.50773484e-01 -1.14239487e-01 -8.84267897e-02
  2.80457582e-02  6.04278551e-02  7.89041868e-02  8.47250430e-02
  1.05940096e-01  1.22960219e-01  1.26028897e-01  1.41393513e-01
  1.60143175e-01  1.79021215e-01  2.19659110e-01  2.28844645e-01
  2.43060777e-01  2.63438949e-01  3.69466734e-01  3.88219728e-01
  4.32048350e-01  4.57242056e-01  4.73595575e-01  4.86961385e-01
  5.00183112e-01  5.18551812e-01  5.24709097e-01  5.32652407e-01
  5.36529008e-01  5.54501576e-01  5.64457181e-01  5.67245100e-01
  5.92775081e-01  5.95804074e-01  5.99434760e-01  6.65255640e-01
  6.67484505e-01  7.20476323e-01  7.41411610e-01  7.61710978e-01
  7.70651882e-01  7.84520395e-01  7.95191205e-01  7.95391646e-01
  8.48425354e-01  8.58085141e-01  8.85281689e-01  8.99501625e-01
  9.14180751e-01  9.59988045e-01  9.86229708e-01  1.01716303e+00
  1.03363774e+00  1.05319464e+00  1.05349527e+00  1.06732850e+00
  1.08003607e+00  1.10153222e+00  1.13473152e+00  1.14928680e+00
  1.16163576e+00  1.27380196e+00  1.28314345e+00  1.32260405e+00
  1.35962058e+00  1.38561128e+00  1.39094750e+00  1.40390675e+00
  1.42479997e+00  1.44625919e+00  1.64121165e+00  1.73227822e+00
  1.77010044e+00  1.79867038e+00  1.85071956e+00  1.86035303e+00
  1.86831751e+00  1.91808936e+00  1.97429905e+00  2.04204427e+00
  2.06576101e+00  2.07296262e+00  2.09313014e+00  2.10913814e+00
  2.18393478e+00  2.21317289e+00  2.25594888e+00  2.27961613e+00
  2.35134055e+00  2.35210963e+00  2.48124829e+00  2.50986124e+00
  2.59645736e+00  2.59864231e+00  2.66098913e+00  2.67884350e+00
  2.70032079e+00  2.78345808e+00  2.95907958e+00  3.34085198e+00]
nelec by numeric integration = 68.00008967923777
    CPU time for vxc      5.97 sec, wall time      0.21 sec
E1 = -1776.7211143464017  Ecoul = 719.0119197144722  Exc = -70.47091002725531
cycle= 10 E= -748.090655923352  delta_E= -1.25e-07  |g|= 0.000263  |ddm|= 0.000758
    CPU time for cycle= 10      6.48 sec, wall time      0.23 sec
  HOMO = -0.150789584505056  LUMO = -0.114250309721409
  mo_energy =
[-1.01335327e+02 -1.44798782e+01 -1.03051459e+01 -1.03040567e+01
 -1.02724490e+01 -1.02691587e+01 -1.02687772e+01 -1.02274975e+01
 -9.26428153e+00 -7.02205339e+00 -7.02123368e+00 -7.02064474e+00
 -1.06550135e+00 -8.93256025e-01 -8.47607062e-01 -7.57750404e-01
 -7.24498257e-01 -6.92703620e-01 -6.13416124e-01 -5.95016708e-01
 -5.70490986e-01 -5.48138535e-01 -5.13167574e-01 -5.10001606e-01
 -5.09098091e-01 -4.46194342e-01 -4.32381508e-01 -4.23068645e-01
 -4.19244320e-01 -3.60024341e-01 -3.38854800e-01 -1.53770398e-01
 -1.50906145e-01 -1.50789585e-01 -1.14250310e-01 -8.84425198e-02
  2.80354460e-02  6.04162433e-02  7.88950150e-02  8.47141753e-02
  1.05933362e-01  1.22953274e-01  1.26019479e-01  1.41393441e-01
  1.60144621e-01  1.79027216e-01  2.19646660e-01  2.28837303e-01
  2.43052333e-01  2.63430540e-01  3.69458486e-01  3.88212259e-01
  4.32035155e-01  4.57229342e-01  4.73587930e-01  4.86954743e-01
  5.00165201e-01  5.18537212e-01  5.24693078e-01  5.32637911e-01
  5.36516476e-01  5.54492344e-01  5.64446702e-01  5.67233233e-01
  5.92764060e-01  5.95792746e-01  5.99425146e-01  6.65249985e-01
  6.67479311e-01  7.20471041e-01  7.41404929e-01  7.61695508e-01
  7.70636281e-01  7.84511302e-01  7.95197220e-01  7.95378774e-01
  8.48417907e-01  8.58072958e-01  8.85286551e-01  8.99495840e-01
  9.14168602e-01  9.59981474e-01  9.86234532e-01  1.01715064e+00
  1.03362434e+00  1.05316920e+00  1.05346995e+00  1.06730577e+00
  1.08001477e+00  1.10151949e+00  1.13472068e+00  1.14927967e+00
  1.16162307e+00  1.27379772e+00  1.28313558e+00  1.32259715e+00
  1.35961276e+00  1.38559780e+00  1.39093490e+00  1.40388887e+00
  1.42478145e+00  1.44625336e+00  1.64120095e+00  1.73226696e+00
  1.77009846e+00  1.79866353e+00  1.85071517e+00  1.86034097e+00
  1.86830707e+00  1.91808224e+00  1.97428250e+00  2.04202914e+00
  2.06574655e+00  2.07295087e+00  2.09312183e+00  2.10912446e+00
  2.18392825e+00  2.21315735e+00  2.25593956e+00  2.27961966e+00
  2.35132999e+00  2.35210698e+00  2.48123382e+00  2.50984943e+00
  2.59644457e+00  2.59862938e+00  2.66097365e+00  2.67882936e+00
  2.70031192e+00  2.78345507e+00  2.95906806e+00  3.34083902e+00]
nelec by numeric integration = 68.00008968062139
    CPU time for vxc      5.98 sec, wall time      0.21 sec
E1 = -1776.7219618319273  Ecoul = 719.0128326259702  Exc = -70.4709754683525
cycle= 11 E= -748.090655938477  delta_E= -1.51e-08  |g|= 9.77e-05  |ddm|= 0.000397
    CPU time for cycle= 11      6.49 sec, wall time      0.23 sec
  HOMO = -0.150780663680448  LUMO = -0.114255090409672
  mo_energy =
[-1.01335314e+02 -1.44798976e+01 -1.03051596e+01 -1.03040459e+01
 -1.02724494e+01 -1.02691610e+01 -1.02687971e+01 -1.02274957e+01
 -9.26426867e+00 -7.02204070e+00 -7.02122092e+00 -7.02063172e+00
 -1.06551097e+00 -8.93262533e-01 -8.47613800e-01 -7.57754675e-01
 -7.24505213e-01 -6.92708462e-01 -6.13410540e-01 -5.95017023e-01
 -5.70497344e-01 -5.48143524e-01 -5.13174838e-01 -5.10007640e-01
 -5.09102517e-01 -4.46200154e-01 -4.32385890e-01 -4.23072908e-01
 -4.19247931e-01 -3.60030196e-01 -3.38860792e-01 -1.53762619e-01
 -1.50898180e-01 -1.50780664e-01 -1.14255090e-01 -8.84488237e-02
  2.80321014e-02  6.04107551e-02  7.88910582e-02  8.47118934e-02
  1.05929484e-01  1.22948711e-01  1.26018114e-01  1.41390873e-01
  1.60141699e-01  1.79025349e-01  2.19642782e-01  2.28832501e-01
  2.43045836e-01  2.63426402e-01  3.69454766e-01  3.88205355e-01
  4.32029883e-01  4.57224479e-01  4.73589078e-01  4.86950488e-01
  5.00158900e-01  5.18532679e-01  5.24688526e-01  5.32633540e-01
  5.36514266e-01  5.54492451e-01  5.64443946e-01  5.67232378e-01
  5.92768179e-01  5.95788628e-01  5.99428372e-01  6.65245394e-01
  6.67480438e-01  7.20469936e-01  7.41400593e-01  7.61690741e-01
  7.70634481e-01  7.84511069e-01  7.95190849e-01  7.95376004e-01
  8.48413468e-01  8.58069073e-01  8.85283776e-01  8.99494182e-01
  9.14164813e-01  9.59976076e-01  9.86231659e-01  1.01714718e+00
  1.03361997e+00  1.05317984e+00  1.05348051e+00  1.06731515e+00
  1.08002240e+00  1.10151586e+00  1.13472069e+00  1.14927436e+00
  1.16161625e+00  1.27379941e+00  1.28312894e+00  1.32259215e+00
  1.35960604e+00  1.38559265e+00  1.39092851e+00  1.40388388e+00
  1.42477468e+00  1.44624686e+00  1.64119434e+00  1.73226092e+00
  1.77009268e+00  1.79865788e+00  1.85071045e+00  1.86033519e+00
  1.86830227e+00  1.91807667e+00  1.97427650e+00  2.04202272e+00
  2.06573989e+00  2.07294502e+00  2.09311713e+00  2.10911825e+00
  2.18392181e+00  2.21315139e+00  2.25593368e+00  2.27961608e+00
  2.35132560e+00  2.35210092e+00  2.48122701e+00  2.50984410e+00
  2.59643807e+00  2.59862312e+00  2.66096744e+00  2.67882337e+00
  2.70030558e+00  2.78344884e+00  2.95906180e+00  3.34083288e+00]
nelec by numeric integration = 68.00008968032269
    CPU time for vxc      6.03 sec, wall time      0.22 sec
E1 = -1776.7220161860705  Ecoul = 719.0128830907046  Exc = -70.47097158185532
cycle= 12 E= -748.090655941389  delta_E= -2.91e-09  |g|= 2.95e-05  |ddm|= 0.000158
    CPU time for cycle= 12      6.57 sec, wall time      0.23 sec
  HOMO = -0.150777919687694  LUMO = -0.114255188988684
  mo_energy =
[-1.01335307e+02 -1.44799017e+01 -1.03051515e+01 -1.03040504e+01
 -1.02724484e+01 -1.02691668e+01 -1.02687921e+01 -1.02274982e+01
 -9.26426272e+00 -7.02203464e+00 -7.02121489e+00 -7.02062565e+00
 -1.06551199e+00 -8.93262625e-01 -8.47613865e-01 -7.57755813e-01
 -7.24505651e-01 -6.92708763e-01 -6.13408334e-01 -5.95016284e-01
 -5.70497562e-01 -5.48143894e-01 -5.13175894e-01 -5.10007640e-01
 -5.09103379e-01 -4.46200357e-01 -4.32386364e-01 -4.23073819e-01
 -4.19249142e-01 -3.60030878e-01 -3.38860714e-01 -1.53760132e-01
 -1.50895658e-01 -1.50777920e-01 -1.14255189e-01 -8.84488943e-02
  2.80319192e-02  6.04106461e-02  7.88909220e-02  8.47114236e-02
  1.05929075e-01  1.22948999e-01  1.26016711e-01  1.41390372e-01
  1.60141026e-01  1.79024321e-01  2.19641931e-01  2.28831839e-01
  2.43046537e-01  2.63425937e-01  3.69454265e-01  3.88205224e-01
  4.32030077e-01  4.57223962e-01  4.73589517e-01  4.86950196e-01
  5.00159103e-01  5.18532429e-01  5.24688375e-01  5.32634016e-01
  5.36514295e-01  5.54492990e-01  5.64443754e-01  5.67232421e-01
  5.92769917e-01  5.95788163e-01  5.99429910e-01  6.65245631e-01
  6.67481336e-01  7.20469784e-01  7.41400582e-01  7.61691096e-01
  7.70633954e-01  7.84511465e-01  7.95189344e-01  7.95375907e-01
  8.48413308e-01  8.58068827e-01  8.85282800e-01  8.99493491e-01
  9.14164940e-01  9.59975633e-01  9.86230865e-01  1.01714726e+00
  1.03361973e+00  1.05318336e+00  1.05348400e+00  1.06731831e+00
  1.08002483e+00  1.10151593e+00  1.13472114e+00  1.14927375e+00
  1.16161606e+00  1.27380002e+00  1.28312834e+00  1.32259154e+00
  1.35960551e+00  1.38559235e+00  1.39092801e+00  1.40388405e+00
  1.42477476e+00  1.44624615e+00  1.64119387e+00  1.73226074e+00
  1.77009174e+00  1.79865719e+00  1.85070971e+00  1.86033498e+00
  1.86830147e+00  1.91807616e+00  1.97427666e+00  2.04202233e+00
  2.06573972e+00  2.07294463e+00  2.09311595e+00  2.10911800e+00
  2.18392204e+00  2.21315120e+00  2.25593309e+00  2.27961494e+00
  2.35132504e+00  2.35209971e+00  2.48122725e+00  2.50984344e+00
  2.59643793e+00  2.59862274e+00  2.66096743e+00  2.67882316e+00
  2.70030523e+00  2.78344799e+00  2.95906134e+00  3.34083258e+00]
nelec by numeric integration = 68.00008968024966
    CPU time for vxc      6.04 sec, wall time      0.22 sec
E1 = -1776.721966702175  Ecoul = 719.0128285685063  Exc = -70.47096654378326
cycle= 13 E= -748.090655941619  delta_E= -2.31e-10  |g|= 1.08e-05  |ddm|= 5.72e-05
    CPU time for cycle= 13      6.57 sec, wall time      0.24 sec
  HOMO = -0.150780465516002  LUMO = -0.114253916573874
  mo_energy =
[-1.01335312e+02 -1.44798975e+01 -1.03051538e+01 -1.03040417e+01
 -1.02724490e+01 -1.02691631e+01 -1.02687969e+01 -1.02274980e+01
 -9.26426713e+00 -7.02203913e+00 -7.02121934e+00 -7.02063007e+00
 -1.06550911e+00 -8.93261938e-01 -8.47612135e-01 -7.57754893e-01
 -7.24504164e-01 -6.92707776e-01 -6.13410079e-01 -5.95016324e-01
 -5.70496282e-01 -5.48143083e-01 -5.13173853e-01 -5.10006250e-01
 -5.09102550e-01 -4.46199544e-01 -4.32385392e-01 -4.23073383e-01
 -4.19249002e-01 -3.60029885e-01 -3.38859371e-01 -1.53762565e-01
 -1.50898030e-01 -1.50780466e-01 -1.14253917e-01 -8.84477250e-02
  2.80325735e-02  6.04115276e-02  7.88915966e-02  8.47123996e-02
  1.05929871e-01  1.22949223e-01  1.26018225e-01  1.41390600e-01
  1.60141515e-01  1.79024639e-01  2.19643415e-01  2.28833021e-01
  2.43046602e-01  2.63427010e-01  3.69455111e-01  3.88206372e-01
  4.32031169e-01  4.57225207e-01  4.73589272e-01  4.86950620e-01
  5.00160928e-01  5.18533794e-01  5.24689349e-01  5.32634391e-01
  5.36514458e-01  5.54492855e-01  5.64444319e-01  5.67232714e-01
  5.92768486e-01  5.95789207e-01  5.99428597e-01  6.65245717e-01
  6.67480588e-01  7.20470084e-01  7.41401240e-01  7.61692026e-01
  7.70634492e-01  7.84511213e-01  7.95191193e-01  7.95376648e-01
  8.48413853e-01  8.58069405e-01  8.85283133e-01  8.99493954e-01
  9.14165539e-01  9.59976792e-01  9.86231040e-01  1.01714778e+00
  1.03362081e+00  1.05318025e+00  1.05348092e+00  1.06731545e+00
  1.08002265e+00  1.10151624e+00  1.13472106e+00  1.14927479e+00
  1.16161750e+00  1.27379911e+00  1.28312982e+00  1.32259265e+00
  1.35960660e+00  1.38559358e+00  1.39092938e+00  1.40388483e+00
  1.42477644e+00  1.44624780e+00  1.64119533e+00  1.73226178e+00
  1.77009299e+00  1.79865828e+00  1.85071057e+00  1.86033582e+00
  1.86830285e+00  1.91807696e+00  1.97427786e+00  2.04202402e+00
  2.06574165e+00  2.07294581e+00  2.09311731e+00  2.10911957e+00
  2.18392216e+00  2.21315257e+00  2.25593419e+00  2.27961523e+00
  2.35132635e+00  2.35210121e+00  2.48122842e+00  2.50984476e+00
  2.59643915e+00  2.59862419e+00  2.66096878e+00  2.67882459e+00
  2.70030625e+00  2.78344928e+00  2.95906296e+00  3.34083397e+00]
nelec by numeric integration = 68.00008968018125
    CPU time for vxc      6.04 sec, wall time      0.22 sec
E1 = -1776.7219527832074  Ecoul = 719.012817407134  Exc = -70.4709693012278
Extra cycle  E= -748.090655941469  delta_E= 1.51e-10  |g|= 2.37e-05  |ddm|= 5.53e-05
    CPU time for scf_cycle    109.53 sec, wall time      4.08 sec
    CPU time for SCF    109.53 sec, wall time      4.08 sec
converged SCF energy = -748.090655941469
Converting <class 'pyscf.dft.rks.RKS'> to RHF


******** <class 'pyscf.tdscf.rks.TDA'> for <class 'pyscf.dft.rks.RKS'> ********
nstates = 10 singlet
wfnsym = None
conv_tol = 1e-09
eigh lindep = 1e-12
eigh level_shift = 0
eigh max_space = 50
eigh max_cycle = 100
chkfile = /scratch/global/yangjunjie/tmp68i1a9f7
max_memory 127949 MB (current use 601 MB)


davidson 0 10  |r|= 0.107  e= [0.0153431  0.01727316 0.04407231 0.04450901 0.04589397 0.06376304
 0.15903783 0.15991287 0.17004062 0.19309217]  max|de|= 0.193  lindep=    1
Old state -> New state
    3     ->     2 
    2     ->     3 
davidson 1 20  |r|= 0.0179  e= [0.01527037 0.01701041 0.0435762  0.0440618  0.04584484 0.05083495
 0.15839108 0.15921533 0.16683193 0.19301923]  max|de|= -0.0129  lindep= 0.83
davidson 2 30  |r|= 0.011  e= [0.01527021 0.01700397 0.04355963 0.04406153 0.0458442  0.05047379
 0.15820469 0.15903147 0.16640122 0.19300966]  max|de|= -0.000431  lindep= 0.896
root 0 converged  |r|= 2.5e-06  e= 0.0152702080087072  max|de|= -7.18e-10
davidson 3 40  |r|= 0.0039  e= [0.01527021 0.01700393 0.04355798 0.04406152 0.04584418 0.05044716
 0.15818701 0.15901628 0.16621121 0.19300914]  max|de|= -0.00019  lindep= 0.848
root 1 converged  |r|= 1.48e-06  e= 0.017003932337929982  max|de|= -1.75e-10
root 3 converged  |r|= 8.49e-07  e= 0.044061524875749186  max|de|= -2.6e-11
root 4 converged  |r|= 8.04e-07  e= 0.045844180940580716  max|de|= -1.61e-10
davidson 4 49  |r|= 0.00197  e= [0.01527021 0.01700393 0.04355786 0.04406152 0.04584418 0.05044653
 0.15818538 0.15901346 0.16618408 0.19300908]  max|de|= -2.71e-05  lindep= 0.831
davidson 5 55  |r|= 0.000932  e= [0.01527021 0.01700393 0.04355786 0.04406152 0.04584418 0.05044651
 0.15818515 0.15901284 0.16617851 0.19300904]  max|de|= -5.57e-06  lindep= 0.832
root 2 converged  |r|= 6.81e-07  e= 0.04355785681534119  max|de|= -2.82e-11
root 5 converged  |r|= 4.34e-06  e= 0.050446512195270285  max|de|= -5.09e-10
davidson 6 61  |r|= 0.000488  e= [0.01527021 0.01700393 0.04355786 0.04406152 0.04584418 0.05044651
 0.15818513 0.15901275 0.16617687 0.19300899]  max|de|= -1.64e-06  lindep= 0.787
davidson 7 65  |r|= 0.000335  e= [0.01527021 0.01700393 0.04355786 0.04406152 0.04584418 0.05044651
 0.15818512 0.15901274 0.16617635 0.19300892]  max|de|= -5.24e-07  lindep= 0.806
root 6 converged  |r|= 6.02e-06  e= 0.1581851244371283  max|de|= -3.82e-10
davidson 8 69  |r|= 0.000117  e= [0.01527021 0.01700393 0.04355786 0.04406152 0.04584418 0.05044651
 0.15818512 0.15901274 0.16617622 0.1930089 ]  max|de|= -1.28e-07  lindep= 0.779
root 7 converged  |r|= 1.52e-05  e= 0.15901274013673583  max|de|= -3.33e-16
davidson 9 10  |r|= 0.000117  e= [0.01527021 0.01700393 0.04355786 0.04406152 0.04584418 0.05044651
 0.15818512 0.15901274 0.16617622 0.1930089 ]  max|de|= -3.33e-16  lindep=    1
davidson 10 12  |r|= 5.66e-05  e= [0.01527021 0.01700393 0.04355786 0.04406152 0.04584418 0.05044651
 0.15818512 0.15901274 0.16617621 0.1930089 ]  max|de|= -1.31e-08  lindep= 0.694
root 9 converged  |r|= 1.25e-05  e= 0.19300890198531562  max|de|= -7.19e-10
davidson 11 14  |r|= 1.76e-05  e= [0.01527021 0.01700393 0.04355786 0.04406152 0.04584418 0.05044651
 0.15818512 0.15901274 0.1661762  0.1930089 ]  max|de|= -3.57e-09  lindep= 0.896
root 8 converged  |r|= 1.12e-05  e= 0.16617620287937554  max|de|= -6.73e-10
converged 12 15  |r|= 1.51e-05  e= [0.01527021 0.01700393 0.04355786 0.04406152 0.04584418 0.05044651
 0.15818512 0.15901274 0.1661762  0.1930089 ]  max|de|= -6.73e-10
    CPU time for TDA    245.23 sec, wall time      8.99 sec
Excited State energies (eV)
[0.41552352 0.46270057 1.18526966 1.19897516 1.2474837  1.37271952
 4.30443648 4.32695705 4.5218848  5.25203974]
Converting <class 'pyscf.dft.rks.RKS'> to RHF


******** <class 'pyscf.tdscf.rks.TDDFT'> for <class 'pyscf.dft.rks.RKS'> ********
nstates = 10 singlet
wfnsym = None
conv_tol = 1e-09
eigh lindep = 1e-12
eigh level_shift = 0
eigh max_space = 50
eigh max_cycle = 100
chkfile = /scratch/global/yangjunjie/tmp68i1a9f7
max_memory 127949 MB (current use 632 MB)


davidson 0 10  |r|= 0.159  e= [0.0153431  0.01727316 0.04407231 0.04450901 0.04589397 0.06376304
 0.15903783 0.15991287 0.17004062 0.19309217]  max|de|= 0.193  lindep=    1
Old state -> New state
    3     ->     1 
    1     ->     2 
    1     ->     3 
    5     ->     4 
    2     ->     5 
    3     ->     6 
    4     ->     7 
    5     ->     8 
    6     ->     9 
davidson 1 20  |r|= 1.04  e= [0.01506364 0.01578077 0.0167776  0.02779649 0.03448962 0.04405721
 0.04411037 0.04583162 0.08269995 0.15696844]  max|de|= -0.0293  lindep= 0.0553
Old state -> New state
    2     ->     1 
    4     ->     2 
    6     ->     3 
    5     ->     4 
    7     ->     5 
    0     ->     6 
    2     ->     7 
    6     ->     8 
davidson 2 30  |r|= 1.47  e= [0.01514943 0.0167564  0.0353507  0.04319647 0.04405965 0.04583544
 0.05177215 0.05859456 0.08309165 0.15811153]  max|de|= 0.0418  lindep= 0.0972
Old state -> New state
    1     ->     0 
    0     ->     1 
    1     ->     2 
    2     ->     3 
    3     ->     4 
    4     ->     5 
    5     ->     6 
    2     ->     9 
davidson 3 40  |r|= 1.32  e= [0.01359678 0.01514497 0.01683731 0.03535522 0.04329387 0.04405997
 0.04583691 0.06137524 0.06862739 0.0996441 ]  max|de|= 0.0643  lindep= 0.0786
Old state -> New state
    7     ->     0 
    3     ->     1 
    1     ->     2 
    2     ->     3 
    3     ->     4 
    4     ->     5 
    5     ->     6 
    6     ->     7 
    3     ->     8 
    7     ->     9 
davidson 4 50  |r|= 1.15  e= [0.0021552  0.0119168  0.01514463 0.01678156 0.0351966  0.04328211
 0.04405991 0.04583676 0.121085   0.15815324]  max|de|= 0.0968  lindep= 0.0459
Old state -> New state
    2     ->     0 
    3     ->     1 
    4     ->     2 
    5     ->     3 
    6     ->     4 
    7     ->     5 
    0     ->     6 
    4     ->     7 
    0     ->     8 
    8     ->     9 
davidson 5 60  |r|= 1.17  e= [0.01514461 0.01678173 0.03526944 0.0432856  0.04405991 0.04583674
 0.08163218 0.10284309 0.12780472 0.13116914]  max|de|= 0.126  lindep= 0.186
Old state -> New state
    5     ->     6 
    9     ->     7 
    6     ->     8 
    7     ->     9 
root 4 converged  |r|= 1.57e-06  e= 0.044059907691162026  max|de|= 3.85e-10
davidson 6 70  |r|= 1.27  e= [0.01514461 0.01678176 0.03529031 0.0432843  0.04405991 0.04583675
 0.04647272 0.12742574 0.15813526 0.15932871]  max|de|= 0.0765  lindep= 0.0707
Old state -> New state
    8     ->     7 
    9     ->     8 
    7     ->     9 
root 0 converged  |r|= 1.2e-07  e= 0.015144613457458267  max|de|= -3.09e-11
davidson 7 78  |r|= 1.26  e= [0.01514461 0.01678176 0.03530039 0.04328423 0.04405991 0.04583674
 0.14046679 0.15812448 0.15893624 0.16516454]  max|de|= 0.094  lindep= 0.235
root 1 converged  |r|= 3.24e-07  e= 0.016781760158105983  max|de|= -4.16e-17
root 3 converged  |r|= 2.53e-05  e= 0.043284232407369484  max|de|= -2.08e-17
root 5 converged  |r|= 2.08e-07  e= 0.04583673938505537  max|de|= -1.94e-16
davidson 8 10  |r|= 1.26  e= [0.01514461 0.01678176 0.03530039 0.04328423 0.04405991 0.04583674
 0.14046679 0.15812448 0.15893624 0.16516454]  max|de|= -6.11e-16  lindep= 0.411
Old state -> New state
    2     ->     3 
    3     ->     4 
    4     ->     5 
    5     ->     6 
    2     ->     7 
    7     ->     8 
    8     ->     9 
davidson 9 15  |r|= 1.44  e= [0.01514461 0.01678176 0.03132511 0.03530684 0.0432843  0.04405991
 0.04583674 0.09204743 0.15814018 0.15898015]  max|de|= 0.0567  lindep= 0.295
Old state -> New state
    2     ->     0 
    0     ->     1 
    1     ->     2 
    3     ->     4 
    4     ->     5 
    5     ->     6 
    6     ->     7 
    3     ->     8 
    7     ->     9 
davidson 10 21  |r|=  1.3  e= [0.00523112 0.01514461 0.01678176 0.03264616 0.03530537 0.0432847
 0.04405991 0.04583674 0.05123511 0.14760422]  max|de|= 0.0556  lindep= 0.245
Old state -> New state
    1     ->     0 
    2     ->     1 
    4     ->     2 
    5     ->     4 
    6     ->     5 
    7     ->     6 
    0     ->     7 
    9     ->     8 
davidson 11 27  |r|= 1.12  e= [0.01514461 0.01678176 0.03529834 0.0412678  0.04328408 0.04405991
 0.04583674 0.12768142 0.15813985 0.15899747]  max|de|= 0.122  lindep= 0.218
Old state -> New state
    2     ->     3 
    4     ->     7 
    3     ->     8 
    8     ->     9 
davidson 12 33  |r|= 0.988  e= [0.01514461 0.01678176 0.03164863 0.03530104 0.04328428 0.04405991
 0.04583674 0.07956184 0.10314163 0.15813933]  max|de|= 0.0619  lindep= 0.106
Old state -> New state
    3     ->     2 
    4     ->     3 
    5     ->     4 
    6     ->     5 
    2     ->     6 
    8     ->     7 
    9     ->     8 
    8     ->     9 
root 1 converged  |r|= 1.61e-07  e= 0.01678175995061558  max|de|= 9.61e-10
davidson 13 40  |r|= 1.34  e= [0.01514461 0.01678176 0.03530212 0.04328425 0.04405991 0.04583674
 0.06093573 0.10906877 0.158142   0.15898177]  max|de|= 0.0558  lindep= 0.163
Old state -> New state
    2     ->     6 
    6     ->     7 
davidson 14 46  |r|= 1.25  e= [0.01514461 0.01678176 0.03530215 0.04328426 0.04405991 0.04583674
 0.07832234 0.1237458  0.1581388  0.15898236]  max|de|= 0.0628  lindep= 0.133
Old state -> New state
    2     ->     6 
    8     ->     7 
    9     ->     8 
    7     ->     9 
davidson 15 51  |r|= 1.06  e= [0.01514461 0.01678176 0.03530213 0.04328425 0.04405991 0.04583674
 0.07485763 0.15813909 0.15894774 0.16513414]  max|de|= 0.0414  lindep= 0.199
Old state -> New state
    2     ->     6 
root 3 converged  |r|= 4.8e-08  e= 0.043284254824722306  max|de|= 3e-10
davidson 16 55  |r|= 0.856  e= [0.01514461 0.01678176 0.03530213 0.04328425 0.04405991 0.04583674
 0.08679484 0.15813796 0.1589795  0.16468081]  max|de|= 0.0515  lindep= 0.185
davidson 17 59  |r|= 1.01  e= [0.01514461 0.01678176 0.03530213 0.04328425 0.04405991 0.04583674
 0.14791384 0.15813844 0.15897293 0.16468793]  max|de|= 0.0611  lindep= 0.282
Old state -> New state
    7     ->     6 
    8     ->     7 
    9     ->     8 
    8     ->     9 
root 2 converged  |r|= 2.35e-07  e= 0.035302133200270994  max|de|= 4.89e-12
davidson 18 63  |r|= 0.892  e= [0.01514461 0.01678176 0.03530213 0.04328425 0.04405991 0.04583674
 0.15813884 0.1589768  0.16471774 0.18448426]  max|de|= 0.0255  lindep= 0.31
davidson 19 67  |r|= 0.706  e= [0.01514461 0.01678176 0.03530213 0.04328425 0.04405991 0.04583674
 0.15813894 0.15898116 0.16474347 0.1851779 ]  max|de|= 0.000694  lindep= 0.391
Old state -> New state
    7     ->     9 
davidson 20 71  |r|= 0.278  e= [0.01514461 0.01678176 0.03530213 0.04328425 0.04405991 0.04583674
 0.15813888 0.15897996 0.16473363 0.19345855]  max|de|= 0.0345  lindep= 0.221
Old state -> New state
    2     ->     6 
    6     ->     7 
    7     ->     8 
    8     ->     9 
davidson 21 75  |r|= 1.06  e= [0.01514461 0.01678176 0.03530213 0.04328425 0.04405991 0.04583674
 0.0918123  0.15813887 0.15897992 0.16473151]  max|de|= 0.0565  lindep= 0.192
root 2 converged  |r|= 1.55e-07  e= 0.035302130708227734  max|de|= -6.1e-10
davidson 22 79  |r|= 0.898  e= [0.01514461 0.01678176 0.03530213 0.04328425 0.04405991 0.04583674
 0.14759193 0.15813889 0.15897992 0.16473257]  max|de|= 0.0558  lindep= 0.335
root 7 converged  |r|= 1.26e-05  e= 0.15813889146410257  max|de|= -1.67e-16
davidson 23 10  |r|= 0.898  e= [0.01514461 0.01678176 0.03530213 0.04328425 0.04405991 0.04583674
 0.14759193 0.15813889 0.15897992 0.16473257]  max|de|= -3.61e-16  lindep= 0.55
Old state -> New state
    2     ->     6 
davidson 24 13  |r|= 1.13  e= [0.01514461 0.01678176 0.03530213 0.04328425 0.04405991 0.04583674
 0.0901921  0.15813887 0.15897986 0.16472202]  max|de|= 0.0549  lindep= 0.417
davidson 25 17  |r|= 1.06  e= [0.01514461 0.01678176 0.03530213 0.04328425 0.04405991 0.04583674
 0.09031816 0.15813886 0.15897992 0.16473098]  max|de|= 0.000126  lindep= 0.353
davidson 26 21  |r|= 0.694  e= [0.01514461 0.01678176 0.03530213 0.04328425 0.04405991 0.04583674
 0.14749053 0.15813888 0.15897996 0.16473057]  max|de|= 0.0572  lindep= 0.544
Old state -> New state
    2     ->     6 
davidson 27 25  |r|= 0.367  e= [0.01514461 0.01678176 0.03530214 0.04328425 0.04405991 0.04583674
 0.05339802 0.15813887 0.15897993 0.16473076]  max|de|= 0.0181  lindep= 0.194
Old state -> New state
    2     ->     3 
    3     ->     4 
    4     ->     5 
    5     ->     6 
    6     ->     7 
    7     ->     8 
    8     ->     9 
root 8 converged  |r|= 1.04e-06  e= 0.1581388729276787  max|de|= -8.47e-10
davidson 28 29  |r|= 0.601  e= [0.01514461 0.01678176 0.03497966 0.03530217 0.04328425 0.04405991
 0.04583674 0.05940783 0.15813887 0.15897992]  max|de|= 0.00601  lindep= 0.122
Old state -> New state
    3     ->     2 
    4     ->     3 
    5     ->     4 
    6     ->     5 
    2     ->     6 
    8     ->     7 
    9     ->     8 
davidson 29 33  |r|= 0.472  e= [0.01514461 0.01678176 0.03530212 0.04328426 0.04405991 0.04583674
 0.05098611 0.15813889 0.15897977 0.1596735 ]  max|de|= 0.016  lindep= 0.136
Old state -> New state
    6     ->     0 
    0     ->     1 
    1     ->     2 
    2     ->     3 
    3     ->     4 
    4     ->     5 
    5     ->     6 
    2     ->     7 
    7     ->     8 
    8     ->     9 
davidson 30 37  |r|= 0.677  e= [0.00195397 0.01514461 0.01678176 0.03530213 0.04328425 0.04405991
 0.04583674 0.05556998 0.15813887 0.15897992]  max|de|= -0.049  lindep= 0.215
Old state -> New state
    1     ->     0 
    2     ->     1 
    3     ->     2 
    4     ->     3 
    5     ->     4 
    6     ->     5 
    7     ->     6 
    8     ->     7 
    9     ->     8 
    0     ->     9 
root 3 converged  |r|= 4.14e-08  e= 0.04328425470222154  max|de|= 5.37e-10
root 8 converged  |r|= 5.41e-06  e= 0.15897992218315768  max|de|= 1.27e-10
davidson 31 40  |r|= 1.09  e= [0.01514461 0.01678176 0.03530213 0.04328425 0.04405991 0.04583674
 0.12718936 0.15813888 0.15897992 0.16473131]  max|de|= 0.163  lindep= 0.235
Old state -> New state
    2     ->     6 
root 2 converged  |r|= 6.9e-08  e= 0.03530213228724415  max|de|= 4.47e-10
davidson 32 43  |r|=  1.1  e= [0.01514461 0.01678176 0.03530213 0.04328425 0.04405991 0.04583674
 0.08242986 0.15813887 0.15897992 0.16473141]  max|de|= 0.0471  lindep= 0.215
Old state -> New state
    7     ->     6 
    8     ->     7 
    9     ->     8 
davidson 33 45  |r|= 0.968  e= [0.01514461 0.01678176 0.03530213 0.04328425 0.04405991 0.04583674
 0.15813887 0.15897993 0.16473177 0.16691614]  max|de|= 0.00218  lindep= 0.294
Old state -> New state
    2     ->     6 
    6     ->     7 
    7     ->     8 
    8     ->     9 
davidson 34 49  |r|= 0.531  e= [0.01514461 0.01678176 0.03530213 0.04328425 0.04405991 0.04583674
 0.05444488 0.15813887 0.15897992 0.16473122]  max|de|= 0.0191  lindep= 0.143
Old state -> New state
    7     ->     6 
    8     ->     7 
    9     ->     8 
    6     ->     9 
root 6 converged  |r|= 1.19e-07  e= 0.15813887340827362  max|de|= 6.12e-11
root 7 converged  |r|= 3.4e-07  e= 0.15897992206970119  max|de|= -8.48e-10
davidson 35 51  |r|= 0.158  e= [0.01514461 0.01678176 0.03530213 0.04328425 0.04405991 0.04583674
 0.15813887 0.15897992 0.16473122 0.19530972]  max|de|= 0.141  lindep= 0.53
davidson 36 53  |r|= 0.449  e= [0.01514461 0.01678176 0.03530213 0.04328425 0.04405991 0.04583674
 0.15813887 0.15897992 0.16473128 0.1915892 ]  max|de|= -0.00372  lindep= 0.453
Old state -> New state
    3     ->     6 
    6     ->     7 
    7     ->     8 
    8     ->     9 
davidson 37 55  |r|= 0.933  e= [0.01514461 0.01678176 0.03530213 0.04328426 0.04405991 0.04583674
 0.07102096 0.15813887 0.15897992 0.16473125]  max|de|= 0.0277  lindep= 0.154
root 9 converged  |r|= 4.96e-06  e= 0.16473124542534262  max|de|= 3.3e-10
davidson 38 57  |r|= 1.03  e= [0.01514461 0.01678176 0.03530213 0.04328426 0.04405991 0.04583674
 0.08516693 0.15813887 0.15897992 0.16473125]  max|de|= 0.0141  lindep= 0.145
Old state -> New state
    7     ->     6 
    8     ->     7 
    9     ->     8 
    6     ->     9 
davidson 39 58  |r|= 0.0829  e= [0.01514461 0.01678176 0.03530213 0.04328425 0.04405991 0.04583674
 0.15813887 0.15897992 0.16473125 0.19391867]  max|de|= 0.109  lindep= 0.468
Old state -> New state
    8     ->     9 
davidson 40 60  |r|= 0.947  e= [0.01514461 0.01678176 0.03530213 0.04328425 0.04405991 0.04583674
 0.15813887 0.15897992 0.16473123 0.17234107]  max|de|= 0.00761  lindep=  0.3
davidson 41 62  |r|= 0.182  e= [0.01514461 0.01678176 0.03530213 0.04328425 0.04405991 0.04583674
 0.15813887 0.15897992 0.16473125 0.19238452]  max|de|= 0.02  lindep= 0.512
davidson 42 64  |r|= 0.0341  e= [0.01514461 0.01678176 0.03530213 0.04328425 0.04405991 0.04583674
 0.15813887 0.15897992 0.16473125 0.19340147]  max|de|= 0.00102  lindep= 0.484
davidson 43 65  |r|= 0.0207  e= [0.01514461 0.01678176 0.03530213 0.04328425 0.04405991 0.04583674
 0.15813887 0.15897992 0.16473125 0.19341147]  max|de|= 1e-05  lindep= 0.303
root 8 converged  |r|= 1.76e-07  e= 0.1647312473375194  max|de|= -1.11e-10
davidson 44 66  |r|= 0.0439  e= [0.01514461 0.01678176 0.03530213 0.04328425 0.04405991 0.04583674
 0.15813887 0.15897992 0.16473125 0.19316679]  max|de|= -0.000245  lindep= 0.56
davidson 45 67  |r|= 0.012  e= [0.01514461 0.01678176 0.03530213 0.04328425 0.04405991 0.04583674
 0.15813887 0.15897992 0.16473125 0.19323083]  max|de|= 6.4e-05  lindep= 0.331
davidson 46 68  |r|= 0.0267  e= [0.01514461 0.01678176 0.03530213 0.04328425 0.04405991 0.04583674
 0.15813887 0.15897992 0.16473125 0.19302695]  max|de|= -0.000204  lindep= 0.683
davidson 47 69  |r|= 0.00937  e= [0.01514461 0.01678176 0.03530213 0.04328425 0.04405991 0.04583674
 0.15813887 0.15897992 0.16473125 0.19308725]  max|de|= 6.03e-05  lindep= 0.318
davidson 48 70  |r|= 0.0307  e= [0.01514461 0.01678176 0.03530213 0.04328425 0.04405991 0.04583674
 0.15813887 0.15897992 0.16473125 0.1928491 ]  max|de|= -0.000238  lindep= 0.808
davidson 49 71  |r|= 0.0112  e= [0.01514461 0.01678176 0.03530213 0.04328425 0.04405991 0.04583674
 0.15813887 0.15897992 0.16473125 0.19289608]  max|de|= 4.7e-05  lindep= 0.345
davidson 50 72  |r|= 0.0157  e= [0.01514461 0.01678176 0.03530213 0.04328425 0.04405991 0.04583674
 0.15813887 0.15897992 0.16473125 0.19272776]  max|de|= -0.000168  lindep= 0.753
davidson 51 73  |r|= 0.00872  e= [0.01514461 0.01678176 0.03530213 0.04328425 0.04405991 0.04583674
 0.15813887 0.15897992 0.16473125 0.19274148]  max|de|= 1.37e-05  lindep= 0.213
davidson 52 74  |r|= 0.00388  e= [0.01514461 0.01678176 0.03530213 0.04328425 0.04405991 0.04583674
 0.15813887 0.15897992 0.16473125 0.19273065]  max|de|= -1.08e-05  lindep= 0.826
davidson 53 75  |r|= 0.00289  e= [0.01514461 0.01678176 0.03530213 0.04328425 0.04405991 0.04583674
 0.15813887 0.15897992 0.16473125 0.19272966]  max|de|= -9.9e-07  lindep= 0.124
davidson 54 76  |r|= 0.00163  e= [0.01514461 0.01678176 0.03530213 0.04328425 0.04405991 0.04583674
 0.15813887 0.15897992 0.16473125 0.19271934]  max|de|= -1.03e-05  lindep= 0.881
Old state -> New state
    2     ->     3 
    3     ->     4 
    4     ->     5 
    5     ->     6 
    6     ->     7 
    7     ->     8 
    8     ->     9 
davidson 55 77  |r|= 0.457  e= [0.01514461 0.01678176 0.03530213 0.03659016 0.04328425 0.04405991
 0.04583674 0.15813887 0.15897992 0.16473125]  max|de|= 0.00129  lindep= 0.0914
davidson 56 10  |r|= 0.457  e= [0.01514461 0.01678176 0.03530213 0.03659016 0.04328425 0.04405991
 0.04583674 0.15813887 0.15897992 0.16473125]  max|de|= -3.61e-16  lindep= 0.223
Old state -> New state
    4     ->     3 
    5     ->     4 
    6     ->     5 
    2     ->     6 
davidson 57 11  |r|= 0.754  e= [0.01514461 0.01678176 0.03530213 0.04328425 0.04405991 0.04583674
 0.06045633 0.15813887 0.15897992 0.16473125]  max|de|= 0.0252  lindep= 0.359
Old state -> New state
    7     ->     6 
    8     ->     7 
    9     ->     8 
    6     ->     9 
davidson 58 12  |r|= 0.674  e= [0.01514461 0.01678176 0.03530213 0.04328425 0.04405991 0.04583674
 0.15813887 0.15897992 0.16473125 0.18379665]  max|de|= 0.123  lindep= 0.694
davidson 59 13  |r|= 0.297  e= [0.01514461 0.01678176 0.03530213 0.04328425 0.04405991 0.04583674
 0.15813887 0.15897992 0.16473125 0.2572152 ]  max|de|= 0.0734  lindep= 0.953
davidson 60 14  |r|= 0.254  e= [0.01514461 0.01678176 0.03530213 0.04328425 0.04405991 0.04583674
 0.15813887 0.15897992 0.16473125 0.25769298]  max|de|= 0.000478  lindep= 0.261
Old state -> New state
    9     ->     6 
    6     ->     7 
    7     ->     8 
    8     ->     9 
davidson 61 15  |r|= 0.579  e= [0.01514461 0.01678176 0.03530213 0.04328425 0.04405991 0.04583674
 0.15715921 0.15813887 0.15897992 0.16473125]  max|de|= -0.101  lindep= 0.516
Old state -> New state
    7     ->     6 
    8     ->     7 
    9     ->     8 
    6     ->     9 
davidson 62 16  |r|= 0.133  e= [0.01514461 0.01678176 0.03530213 0.04328425 0.04405991 0.04583674
 0.15813887 0.15897992 0.16473125 0.21599796]  max|de|= 0.0588  lindep= 0.749
davidson 63 17  |r|= 0.0559  e= [0.01514461 0.01678176 0.03530213 0.04328425 0.04405991 0.04583674
 0.15813887 0.15897992 0.16473125 0.21858315]  max|de|= 0.00259  lindep= 0.847
Old state -> New state
    9     ->     6 
    6     ->     7 
    7     ->     8 
    8     ->     9 
davidson 64 18  |r|= 0.648  e= [0.01514461 0.01678176 0.03530213 0.04328425 0.04405991 0.04583674
 0.08656457 0.15813887 0.15897992 0.16473125]  max|de|= -0.132  lindep= 0.28
Old state -> New state
    7     ->     6 
    8     ->     7 
    9     ->     8 
    6     ->     9 
davidson 65 19  |r|= 0.388  e= [0.01514461 0.01678176 0.03530213 0.04328425 0.04405991 0.04583674
 0.15813887 0.15897992 0.16473125 0.21154486]  max|de|= 0.125  lindep= 0.694
davidson 66 20  |r|= 0.0498  e= [0.01514461 0.01678176 0.03530213 0.04328425 0.04405991 0.04583674
 0.15813887 0.15897992 0.16473125 0.21484291]  max|de|= 0.0033  lindep= 0.724
Old state -> New state
    3     ->     4 
    4     ->     5 
    5     ->     6 
    6     ->     7 
    7     ->     8 
    8     ->     9 
davidson 67 21  |r|= 0.00881  e= [0.01514461 0.01678176 0.03530213 0.04325651 0.04328432 0.04405991
 0.04583674 0.15813887 0.15897992 0.16473125]  max|de|= -2.77e-05  lindep= 0.282
Old state -> New state
    4     ->     3 
    5     ->     4 
    6     ->     5 
    2     ->     6 
root 2 converged  |r|= 2.33e-08  e= 0.03530213226005038  max|de|= -6.99e-10
davidson 68 23  |r|= 0.26  e= [0.01514461 0.01678176 0.03530213 0.04328426 0.04405991 0.04583674
 0.04728082 0.15813887 0.15897992 0.16473125]  max|de|= 0.012  lindep= 0.155
Old state -> New state
    1     ->     0 
    0     ->     1 
    1     ->     2 
    2     ->     3 
    3     ->     4 
    4     ->     5 
    5     ->     6 
    6     ->     7 
    7     ->     8 
    8     ->     9 
root 4 converged  |r|= 2.25e-08  e= 0.04328425467750614  max|de|= -8.42e-10
davidson 69 24  |r|= 0.807  e= [0.01053784 0.01514461 0.01678176 0.03530213 0.04328425 0.04405991
 0.04583674 0.12366865 0.15813887 0.15897992]  max|de|= 0.0764  lindep= 0.122
Old state -> New state
    1     ->     0 
    2     ->     1 
    3     ->     2 
    4     ->     3 
    5     ->     4 
    6     ->     5 
    8     ->     6 
    9     ->     7 
    7     ->     8 
    3     ->     9 
davidson 70 26  |r|= 0.406  e= [0.01514461 0.01678176 0.03530213 0.04328425 0.04405991 0.04583674
 0.15813887 0.15897992 0.16473126 0.17051012]  max|de|= 0.135  lindep= 0.43
davidson 71 28  |r|= 0.0393  e= [0.01514461 0.01678176 0.03530213 0.04328425 0.04405991 0.04583674
 0.15813887 0.15897992 0.16473125 0.21278299]  max|de|= 0.0423  lindep= 0.659
Old state -> New state
    2     ->     6 
    6     ->     7 
    7     ->     8 
    8     ->     9 
root 9 converged  |r|= 7.73e-08  e= 0.1647312471643735  max|de|= -6.63e-11
davidson 72 29  |r|= 0.975  e= [0.01514461 0.01678176 0.03530213 0.04328425 0.04405991 0.04583674
 0.06857527 0.15813887 0.15897992 0.16473125]  max|de|= 0.0333  lindep= 0.277
Old state -> New state
    7     ->     6 
    8     ->     7 
    9     ->     8 
    6     ->     9 
davidson 73 30  |r|= 0.49  e= [0.01514461 0.01678176 0.03530213 0.04328425 0.04405991 0.04583674
 0.15813887 0.15897992 0.16473125 0.18924709]  max|de|= 0.121  lindep= 0.515
davidson 74 31  |r|= 0.128  e= [0.01514461 0.01678176 0.03530213 0.04328425 0.04405991 0.04583674
 0.15813887 0.15897992 0.16473125 0.20896772]  max|de|= 0.0197  lindep= 0.634
Old state -> New state
    3     ->     6 
    6     ->     7 
    7     ->     8 
    8     ->     9 
davidson 75 32  |r|= 1.03  e= [0.01514461 0.01678176 0.03530213 0.04328425 0.04405991 0.04583674
 0.08084597 0.15813887 0.15897992 0.16473125]  max|de|= 0.0376  lindep= 0.221
davidson 76 33  |r|= 0.707  e= [0.01514461 0.01678176 0.03530213 0.04328425 0.04405991 0.04583674
 0.1503946  0.15813887 0.15897992 0.16473125]  max|de|= 0.0695  lindep= 0.389
Old state -> New state
    2     ->     0 
    0     ->     1 
    1     ->     2 
    2     ->     3 
    3     ->     4 
    4     ->     5 
    5     ->     6 
davidson 77 34  |r|= 1.09  e= [0.00240661 0.01514461 0.01678176 0.03530213 0.04328425 0.04405991
 0.04583674 0.15813887 0.15897992 0.16473125]  max|de|= -0.0329  lindep= 0.0866
Old state -> New state
    1     ->     0 
    2     ->     1 
    3     ->     2 
    4     ->     3 
    5     ->     4 
    6     ->     5 
    7     ->     6 
    8     ->     7 
    9     ->     8 
    0     ->     9 
davidson 78 35  |r|= 0.102  e= [0.01514461 0.01678176 0.03530213 0.04328425 0.04405991 0.04583674
 0.15813887 0.15897992 0.16473125 0.2005108 ]  max|de|= 0.198  lindep= 0.649
davidson 79 36  |r|= 0.0785  e= [0.01514461 0.01678176 0.03530213 0.04328425 0.04405991 0.04583674
 0.15813887 0.15897992 0.16473125 0.20056235]  max|de|= 5.16e-05  lindep= 0.206
davidson 80 37  |r|= 0.397  e= [0.01514461 0.01678176 0.03530213 0.04328425 0.04405991 0.04583674
 0.15813887 0.15897992 0.16473125 0.18252181]  max|de|= -0.018  lindep= 0.461
davidson 81 38  |r|= 0.0443  e= [0.01514461 0.01678176 0.03530213 0.04328425 0.04405991 0.04583674
 0.15813887 0.15897992 0.16473125 0.19581324]  max|de|= 0.0133  lindep= 0.594
Old state -> New state
    2     ->     3 
    3     ->     4 
    4     ->     5 
    5     ->     6 
    6     ->     7 
    7     ->     8 
    8     ->     9 
davidson 82 39  |r|= 0.0342  e= [0.01514461 0.01678176 0.03530214 0.03616796 0.04328425 0.04405991
 0.04583674 0.15813887 0.15897992 0.16473125]  max|de|= 0.000866  lindep= 0.158
Old state -> New state
    2     ->     3 
davidson 83 40  |r|= 0.0116  e= [0.01514461 0.01678176 0.03530215 0.03559796 0.04328425 0.04405991
 0.04583674 0.15813887 0.15897992 0.16473125]  max|de|= 0.000296  lindep= 0.00265
Old state -> New state
    4     ->     3 
    5     ->     4 
    6     ->     5 
    3     ->     6 
davidson 84 41  |r|= 1.41  e= [0.01514461 0.01678176 0.03530213 0.04328425 0.04405991 0.04583674
 0.10828482 0.15813887 0.15897992 0.16473125]  max|de|= 0.0727  lindep= 0.147
Old state -> New state
    7     ->     6 
    8     ->     7 
    9     ->     8 
    6     ->     9 
root 2 converged  |r|= 1.23e-08  e= 0.03530213175352513  max|de|= -2.15e-11
davidson 85 42  |r|= 0.0489  e= [0.01514461 0.01678176 0.03530213 0.04328425 0.04405991 0.04583674
 0.15813887 0.15897992 0.16473125 0.19494121]  max|de|= 0.0867  lindep= 0.519
davidson 86 43  |r|= 0.0225  e= [0.01514461 0.01678176 0.03530213 0.04328425 0.04405991 0.04583674
 0.15813887 0.15897992 0.16473125 0.19499673]  max|de|= 5.55e-05  lindep= 0.452
davidson 87 44  |r|= 0.589  e= [0.01514461 0.01678176 0.03530213 0.04328425 0.04405991 0.04583674
 0.15813887 0.15897992 0.16473125 0.18855428]  max|de|= -0.00644  lindep= 0.555
davidson 88 45  |r|= 0.0211  e= [0.01514461 0.01678176 0.03530213 0.04328425 0.04405991 0.04583674
 0.15813887 0.15897992 0.16473125 0.1946341 ]  max|de|= 0.00608  lindep= 0.507
Old state -> New state
    2     ->     3 
    3     ->     4 
    4     ->     5 
    5     ->     6 
    6     ->     7 
    7     ->     8 
    8     ->     9 
davidson 89 46  |r|= 0.62  e= [0.01514461 0.01678176 0.02798428 0.03530213 0.04328425 0.04405991
 0.04583674 0.15813887 0.15897992 0.16473125]  max|de|= -0.00732  lindep= 0.121
Old state -> New state
    2     ->     0 
    0     ->     1 
    1     ->     2 
    9     ->     7 
    7     ->     8 
    8     ->     9 
davidson 90 47  |r|= 1.08  e= [0.00560275 0.01514461 0.01678176 0.03530213 0.04328425 0.04405991
 0.04583674 0.1410348  0.15813887 0.15897992]  max|de|= -0.0237  lindep= 0.163
Old state -> New state
    1     ->     0 
    2     ->     1 
    3     ->     2 
    4     ->     3 
    5     ->     4 
    6     ->     5 
    8     ->     6 
    9     ->     7 
    7     ->     8 
    7     ->     9 
davidson 91 49  |r|= 0.168  e= [0.01514461 0.01678176 0.03530213 0.04328425 0.04405991 0.04583674
 0.15813887 0.15897992 0.16473125 0.19363926]  max|de|= 0.0526  lindep= 0.375
root 8 converged  |r|= 4.84e-08  e= 0.16473124719311394  max|de|= 8.75e-12
davidson 92 50  |r|= 0.00991  e= [0.01514461 0.01678176 0.03530213 0.04328425 0.04405991 0.04583674
 0.15813887 0.15897992 0.16473125 0.19446069]  max|de|= 0.000821  lindep= 0.431
davidson 93 51  |r|= 0.0726  e= [0.01514461 0.01678176 0.03530213 0.04328425 0.04405991 0.04583674
 0.15813887 0.15897992 0.16473125 0.19424237]  max|de|= -0.000218  lindep= 0.749
davidson 94 52  |r|= 0.00974  e= [0.01514461 0.01678176 0.03530213 0.04328425 0.04405991 0.04583674
 0.15813887 0.15897992 0.16473125 0.19433194]  max|de|= 8.96e-05  lindep= 0.55
davidson 95 53  |r|= 0.0706  e= [0.01514461 0.01678176 0.03530213 0.04328425 0.04405991 0.04583674
 0.15813887 0.15897992 0.16473125 0.1939471 ]  max|de|= -0.000385  lindep= 0.71
davidson 96 54  |r|= 0.0126  e= [0.01514461 0.01678176 0.03530213 0.04328425 0.04405991 0.04583674
 0.15813887 0.15897992 0.16473125 0.19415775]  max|de|= 0.000211  lindep= 0.413
davidson 97 55  |r|= 0.046  e= [0.01514461 0.01678176 0.03530213 0.04328425 0.04405991 0.04583674
 0.15813887 0.15897992 0.16473125 0.19385252]  max|de|= -0.000305  lindep= 0.793
davidson 98 56  |r|= 0.0181  e= [0.01514461 0.01678176 0.03530213 0.04328425 0.04405991 0.04583674
 0.15813887 0.15897992 0.16473125 0.19390753]  max|de|= 5.5e-05  lindep= 0.324
davidson 99 57  |r|= 0.0325  e= [0.01514461 0.01678176 0.03530213 0.04328425 0.04405991 0.04583674
 0.15813887 0.15897992 0.16473125 0.19358713]  max|de|= -0.00032  lindep= 0.857
    CPU time for TDDFT    902.17 sec, wall time     32.52 sec
TD-SCF states [9] not converged.
Excited State energies (eV)
[0.41210592 0.45665495 0.96061993 1.17782457 1.19893114 1.24728121
 4.30317793 4.32606402 4.48256556 5.26777426]
