 
:: initializing oneAPI environment ...
   slurm_script: BASH_VERSION = 4.2.46(1)-release
   args: Using "$@" for setvars.sh arguments: --force
:: advisor -- latest
:: ccl -- latest
:: clck -- latest
:: compiler -- latest
:: dal -- latest
:: debugger -- latest
:: dev-utilities -- latest
:: dnnl -- latest
:: dpcpp-ct -- latest
:: dpl -- latest
:: inspector -- latest
:: intelpython -- latest
:: ipp -- latest
:: ippcp -- latest
:: ipp -- latest
:: itac -- latest
:: mkl -- latest
:: mpi -- latest
:: tbb -- latest
:: vpl -- latest
:: vtune -- latest
:: oneAPI environment initialized ::
 
SLURM_CPUS_PER_TASK = 28
SLURM_MEM_PER_NODE = 127949
#INFO: **** input file is /home/yangjunjie/work/py-ch3-cl/work/step_-1/main.py ****
import sys
import pyscf
from pyscf import tdscf

def main(xyz_file, basis="631g*", xc="b3lyp", output="ene.out"):
    xyz = None

    with open(xyz_file, "r") as xyz:
        xyz = xyz.readlines()[2:]
        xyz = "".join(xyz)

    mol = pyscf.gto.Mole()
    mol.atom = xyz
    mol.basis = basis
    mol.verbose = 5
    mol.build()

    if xc is not None and xc != "hf":
        mf = pyscf.scf.RKS(mol)
        mf.xc = xc
        mf.kernel()
    else:
        mf = pyscf.scf.RHF(mol)
        mf.kernel()

    ene_mf = mf.e_tot

    tda = pyscf.tdscf.TDA(mf)
    tda.nstates = 10
    tda.kernel()
    ene_tda = tda.e[:5]
    dip_tda = tda.transition_dipole()[:5]

    rpa = pyscf.tdscf.RPA(mf)
    rpa.nstates = 10
    rpa.kernel()
    ene_rpa = rpa.e[:5]
    dip_rpa = rpa.transition_dipole()[:5]

    with open(output, "w") as f:
        f.write(f"RKS energy: {ene_mf: 12.8f}\n")
        f.write("TDA results:\n")
        for i, (ene, dip) in enumerate(zip(ene_tda, dip_tda)):
            f.write(f" {i:2d} {ene: 12.8f} {dip[0]: 12.8f} {dip[1]: 12.8f} {dip[2]: 12.8f}\n")
        
        f.write("\nRPA results:\n")
        for i, (ene, dip) in enumerate(zip(ene_rpa, dip_rpa)):
            f.write(f" {i:2d} {ene: 12.8f} {dip[0]: 12.8f} {dip[1]: 12.8f} {dip[2]: 12.8f}\n")

if __name__ == "__main__":
    xyz = sys.argv[1]
    main(xyz, basis="631g*", xc="b3lyp", output="out.log")
#INFO: ******************** input file end ********************


System: uname_result(system='Linux', node='pauling040', release='3.10.0-327.36.3.el7.x86_64', version='#1 SMP Thu Oct 20 04:56:07 EDT 2016', machine='x86_64')  Threads 28
Python 3.9.7 (default, Oct 27 2021, 01:23:21) 
[GCC 9.3.0]
numpy 1.21.2  scipy 1.6.2
Date: Tue Sep 27 23:10:10 2022
PySCF version 2.0.1
PySCF path  /home/yangjunjie/packages/pyscf/pyscf-main
GIT ORIG_HEAD 14b880cdc4bf7bb64f3989a147c0b04622efc498
GIT HEAD (branch master) 9d5b5bd309d1cc55fbd1a0ec76e26b5b0c7f76af

[ENV] PYSCF_MAX_MEMORY 127949
[ENV] PYSCF_TMPDIR /scratch/global/yangjunjie/
[CONFIG] conf_file /home/yangjunjie/.pyscf_conf.py
[INPUT] verbose = 5
[INPUT] max_memory = 127949 
[INPUT] num. atoms = 16
[INPUT] num. electrons = 68
[INPUT] charge = 0
[INPUT] spin (= nelec alpha-beta = 2S) = 0
[INPUT] symmetry False subgroup None
[INPUT] Mole.unit = angstrom
[INPUT]  1 C      0.000000000000   1.165242550000   1.033804780000 AA    0.000000000000   2.201989288190   1.953607900466 Bohr
[INPUT]  2 C      0.000000000000   1.195964540000   2.421411600000 AA    0.000000000000   2.260045435291   4.575804758845 Bohr
[INPUT]  3 C      0.000000020000  -0.012255580000   3.113059110000 AA    0.000000037795  -0.023159689698   5.882829127482 Bohr
[INPUT]  4 C      0.000000000000  -1.208182220000   2.398730490000 AA    0.000000000000  -2.283133504369   4.532943672744 Bohr
[INPUT]  5 C     -0.000000010000  -1.151516200000   1.012757380000 AA   -0.000000018897  -2.176050246000   1.913834078832 Bohr
[INPUT]  6 N      0.000000000000   0.013598140000   0.364896200000 AA    0.000000000000   0.025696760403   0.689553881895 Bohr
[INPUT]  7 C      0.000000020000   0.004271100000  -1.571021030000 AA    0.000000037795   0.008071209251  -2.968799482632 Bohr
[INPUT]  8 H      0.000000030000   2.071035990000   0.435494740000 AA    0.000000056692   3.913690815217   0.822965787289 Bohr
[INPUT]  9 H     -0.000000010000   2.145578350000   2.939613380000 AA   -0.000000018897   4.054555460296   5.555064200307 Bohr
[INPUT] 10 H     -0.000000020000  -0.022268150000   4.195845140000 AA   -0.000000037795  -0.042080704801   7.928998175687 Bohr
[INPUT] 11 H     -0.000000030000  -2.167116900000   2.899544210000 AA   -0.000000056692  -4.095257420916   5.479344442968 Bohr
[INPUT] 12 H      0.000000010000  -2.044955800000   0.395715440000 AA    0.000000018897  -3.864406398841   0.747793804862 Bohr
[INPUT] 13 H     -0.000000050000   1.076692320000  -1.648078370000 AA   -0.000000094486   2.034653605223  -3.114416751120 Bohr
[INPUT] 14 H     -0.930077000000  -0.530541330000  -1.638537860000 AA   -1.757590804757  -1.002577811462  -3.096387800131 Bohr
[INPUT] 15 H      0.930077040000  -0.530541330000  -1.638537870000 AA    1.757590880346  -1.002577811462  -3.096387819028 Bohr
[INPUT] 16 Cl    -0.000000010000   0.003257130000  -3.940951820000 AA   -0.000000018897   0.006155083652  -7.447319609906 Bohr
[INPUT] ---------------- BASIS SET ---------------- 
[INPUT] l, kappa, [nprim/nctr], expnt,             c_1 c_2 ...
[INPUT] H
[INPUT] 0    0    [3    /1   ]  18.731137         0.0334946
                                2.8253937         0.23472695
                                0.6401217         0.81375733
[INPUT] 0    0    [1    /1   ]  0.1612778            1
[INPUT] C
[INPUT] 0    0    [6    /1   ]  3047.5249         0.0018347
                                457.36951         0.0140373
                                103.94869         0.0688426
                                29.210155         0.2321844
                                9.286663          0.4679413
                                3.163927          0.362312
[INPUT] 0    0    [3    /1   ]  7.8682724         -0.1193324
                                1.8812885         -0.1608542
                                0.5442493         1.1434564
[INPUT] 0    0    [1    /1   ]  0.1687144            1
[INPUT] 1    0    [3    /1   ]  7.8682724         0.0689991
                                1.8812885         0.316424
                                0.5442493         0.7443083
[INPUT] 1    0    [1    /1   ]  0.1687144            1
[INPUT] 2    0    [1    /1   ]  0.8                  1
[INPUT] Cl
[INPUT] 0    0    [6    /1   ]  25180.1           0.001833
                                3780.35           0.014034
                                860.474           0.069097
                                242.145           0.237452
                                77.3349           0.483034
                                26.247            0.339856
[INPUT] 0    0    [6    /1   ]  491.765           -0.0022974
                                116.984           -0.030714
                                37.4153           -0.112528
                                13.7834           0.045016
                                5.45215           0.589353
                                2.22588           0.465206
[INPUT] 0    0    [3    /1   ]  3.18649           -0.25183
                                1.14427           0.061589
                                0.420377          1.06018
[INPUT] 0    0    [1    /1   ]  0.142657             1
[INPUT] 1    0    [6    /1   ]  491.765           0.0039894
                                116.984           0.030318
                                37.4153           0.12988
                                13.7834           0.327951
                                5.45215           0.453527
                                2.22588           0.252154
[INPUT] 1    0    [3    /1   ]  3.18649           -0.014299
                                1.14427           0.323572
                                0.420377          0.743507
[INPUT] 1    0    [1    /1   ]  0.142657             1
[INPUT] 2    0    [1    /1   ]  0.75                 1
[INPUT] N
[INPUT] 0    0    [6    /1   ]  4173.511          0.0018348
                                627.4579          0.013995
                                142.9021          0.068587
                                40.23433          0.232241
                                12.82021          0.46907
                                4.390437          0.360455
[INPUT] 0    0    [3    /1   ]  11.626358         -0.114961
                                2.71628           -0.169118
                                0.772218          1.145852
[INPUT] 0    0    [1    /1   ]  0.2120313            1
[INPUT] 1    0    [3    /1   ]  11.626358         0.06758
                                2.71628           0.323907
                                0.772218          0.740895
[INPUT] 1    0    [1    /1   ]  0.2120313            1
[INPUT] 2    0    [1    /1   ]  0.8                  1

nuclear repulsion = 378.85378012184
number of shells = 66
number of NR pGTOs = 272
number of NR cGTOs = 132
basis = 631g*
ecp = {}
CPU time:         0.36


******** <class 'pyscf.dft.rks.RKS'> ********
method = RKS
initial guess = minao
damping factor = 0
level_shift factor = 0
DIIS = <class 'pyscf.scf.diis.CDIIS'>
diis_start_cycle = 1
diis_space = 8
SCF conv_tol = 1e-09
SCF conv_tol_grad = None
SCF max_cycles = 50
direct_scf = True
direct_scf_tol = 1e-13
chkfile to save SCF result = /scratch/global/yangjunjie/tmp7xszwtgx
max_memory 127949 MB (current use 81 MB)
XC library pyscf.dft.libxc version 5.2.0
    S. Lehtola, C. Steigemann, M. J. Oliveira, and M. A. Marques, SoftwareX 7, 1 (2018)
XC functionals = b3lyp
    P. A. M. Dirac, Math. Proc. Cambridge Philos. Soc. 26, 376 (1930)
    F. Bloch, Z. Phys. 57, 545 (1929)
    A. D. Becke, Phys. Rev. A 38, 3098 (1988)
    C. Lee, W. Yang, and R. G. Parr, Phys. Rev. B 37, 785 (1988)
    B. Miehlich, A. Savin, H. Stoll, and H. Preuss, Chem. Phys. Lett. 157, 200 (1989)
    S. H. Vosko, L. Wilk, and M. Nusair, Can. J. Phys. 58, 1200 (1980)
radial grids: 
    Treutler-Ahlrichs [JCP 102, 346 (1995); DOI:10.1063/1.469408] (M4) radial grids
    
becke partition: Becke, JCP 88, 2547 (1988); DOI:10.1063/1.454033
pruning grids: <function nwchem_prune at 0x7fbc80f61ee0>
grids dens level: 3
symmetrized grids: False
atomic radii adjust function: <function treutler_atomic_radii_adjust at 0x7fbc80f61e50>
small_rho_cutoff = 1e-07
Set gradient conv threshold to 3.16228e-05
atom C rad-grids = 75, ang-grids = [ 50  50  50  50  50  50  50  50  50  50  50  50  50  50  50  50  50  50
  50  50  50  50  50  86  86  86  86  86  86  86  86  86  86 266 266 266
 266 266 266 266 302 302 302 302 302 302 302 302 302 302 302 302 302 302
 302 302 302 302 302 302 266 266 266 266 266 266 266 266 266 266 266 266
 266 266 266]
atom N rad-grids = 75, ang-grids = [ 50  50  50  50  50  50  50  50  50  50  50  50  50  50  50  50  50  50
  50  50  50  50  50  86  86  86  86  86  86  86  86  86 266 266 266 266
 266 266 266 302 302 302 302 302 302 302 302 302 302 302 302 302 302 302
 302 302 302 302 266 266 266 266 266 266 266 266 266 266 266 266 266 266
 266 266 266]
atom H rad-grids = 50, ang-grids = [ 50  50  50  50  50  50  50  50  50  50  50  50  50  50  86  86  86  86
 266 266 266 266 302 302 302 302 302 302 302 302 302 302 302 302 302 266
 266 266 266 266 266 266 266 266 266 266 266 266 266 266]
atom Cl rad-grids = 80, ang-grids = [ 50  50  50  50  50  50  50  50  50  50  50  50  50  50  50  50  50  50
  50  50  50  50  50  50  86  86  86  86  86  86  86  86  86  86  86  86
  86 350 350 350 350 350 350 350 350 350 434 434 434 434 434 434 434 434
 434 434 434 434 434 434 434 434 434 434 350 350 350 350 350 350 350 350
 350 350 350 350 350 350 350 350]
tot grids = 196530
Drop grids 33493
    CPU time for setting up grids      3.24 sec, wall time      0.13 sec
nelec by numeric integration = 67.97666259722445
    CPU time for vxc      5.98 sec, wall time      0.21 sec
E1 = -1770.9738009061477  Ecoul = 713.540161589043  Exc = -70.32956316024799
init E= -748.909422355513
cond(S) = 6573.953293698372
    CPU time for initialize scf     16.39 sec, wall time      0.66 sec
  HOMO = -0.295847605319632  LUMO = -0.100008006488253
  mo_energy =
[-1.01593615e+02 -1.44100058e+01 -1.02919081e+01 -1.02912673e+01
 -1.02902446e+01 -1.02858624e+01 -1.02856073e+01 -1.02814254e+01
 -9.53348142e+00 -7.28909603e+00 -7.28897300e+00 -7.28897155e+00
 -1.10533403e+00 -9.40855555e-01 -8.88842313e-01 -8.62165100e-01
 -7.81896737e-01 -7.13694975e-01 -7.03854277e-01 -5.77662861e-01
 -5.33736109e-01 -5.12011053e-01 -4.76831462e-01 -4.73803731e-01
 -4.55437398e-01 -4.52143456e-01 -4.30340781e-01 -3.98261100e-01
 -3.86613354e-01 -3.53952739e-01 -3.53236561e-01 -3.24277381e-01
 -3.13703125e-01 -2.95847605e-01 -1.00008006e-01 -7.95001114e-02
 -6.52808305e-02  5.58326637e-02  6.73678975e-02  6.99592271e-02
  9.59426666e-02  1.16783552e-01  1.28248551e-01  1.38243232e-01
  1.40795318e-01  1.63976506e-01  2.11357434e-01  2.38072689e-01
  2.58129246e-01  2.66335192e-01  3.41154413e-01  3.78801801e-01
  4.02876797e-01  4.13653174e-01  4.15897065e-01  4.56860798e-01
  4.78976457e-01  4.89002243e-01  4.93275778e-01  5.24151607e-01
  5.28419746e-01  5.38367815e-01  5.42539185e-01  5.51567172e-01
  5.61186136e-01  5.73214391e-01  5.84983553e-01  6.14730879e-01
  6.30898984e-01  6.50089264e-01  6.66210230e-01  7.53962260e-01
  7.68040372e-01  7.72866557e-01  7.92235422e-01  7.96598586e-01
  7.99061443e-01  8.02734419e-01  8.30794337e-01  8.40040353e-01
  8.61428810e-01  8.67073199e-01  8.78492646e-01  8.94929568e-01
  9.08722202e-01  9.52409104e-01  9.70102144e-01  1.03010566e+00
  1.04179806e+00  1.10233607e+00  1.12565937e+00  1.14795691e+00
  1.17862031e+00  1.22057149e+00  1.30481234e+00  1.34903755e+00
  1.40164522e+00  1.40274529e+00  1.40926100e+00  1.42335834e+00
  1.43764770e+00  1.44298771e+00  1.65350845e+00  1.67636778e+00
  1.69035667e+00  1.70341173e+00  1.77398983e+00  1.81338832e+00
  1.86748120e+00  1.88795313e+00  1.98437933e+00  2.07008321e+00
  2.07711598e+00  2.09499751e+00  2.10134030e+00  2.12514785e+00
  2.16088921e+00  2.18696339e+00  2.22708820e+00  2.24934948e+00
  2.25192296e+00  2.29600660e+00  2.48849038e+00  2.49626590e+00
  2.59521611e+00  2.62156996e+00  2.62872151e+00  2.65067970e+00
  2.69804940e+00  2.69908730e+00  2.95500589e+00  3.32938870e+00]
nelec by numeric integration = 68.00008591590507
    CPU time for vxc      5.89 sec, wall time      0.21 sec
E1 = -1778.5431466136124  Ecoul = 722.4630799366395  Exc = -70.76926849798141
cycle= 1 E= -747.995555053114  delta_E= 0.914  |g|= 0.485  |ddm|= 3.85
    CPU time for cycle= 1      6.37 sec, wall time      0.23 sec
  HOMO = -0.0645786658564705  LUMO = -0.0587170346838186
  mo_energy =
[-1.01025916e+02 -1.45199955e+01 -1.03080553e+01 -1.03073907e+01
 -1.02292491e+01 -1.01870881e+01 -1.01666605e+01 -1.01666426e+01
 -9.01351607e+00 -6.76639173e+00 -6.76430017e+00 -6.76428575e+00
 -1.06966727e+00 -8.42694957e-01 -8.41763457e-01 -7.26536537e-01
 -7.04052150e-01 -6.79367786e-01 -5.95346537e-01 -5.49034722e-01
 -5.22870973e-01 -5.08512613e-01 -5.00364892e-01 -4.97349104e-01
 -4.58366188e-01 -4.45309253e-01 -4.40386575e-01 -4.10281070e-01
 -3.82718487e-01 -3.38815683e-01 -3.23570596e-01 -1.17200489e-01
 -9.83898969e-02 -6.45786659e-02 -5.87170347e-02 -5.80124682e-02
  3.30919103e-02  6.73823599e-02  8.06285062e-02  8.68416171e-02
  9.11051177e-02  1.04331910e-01  1.27055897e-01  1.43701313e-01
  1.69797271e-01  1.70888916e-01  2.19295182e-01  2.37854148e-01
  2.57166172e-01  2.76355191e-01  3.70451058e-01  4.04602290e-01
  4.41492943e-01  4.74948658e-01  5.04030649e-01  5.07936580e-01
  5.33084565e-01  5.43153627e-01  5.53348478e-01  5.57532392e-01
  5.75995345e-01  5.78841702e-01  5.80425760e-01  5.92207377e-01
  6.15843451e-01  6.35963435e-01  6.49187323e-01  6.80355908e-01
  7.10906709e-01  7.22732987e-01  7.37949169e-01  7.58718847e-01
  7.76446827e-01  8.05423722e-01  8.14795089e-01  8.24780847e-01
  8.71783459e-01  8.83485150e-01  8.98938765e-01  9.10979687e-01
  9.25432139e-01  9.46785250e-01  9.85562639e-01  1.02517144e+00
  1.05364066e+00  1.10028339e+00  1.12735728e+00  1.13995843e+00
  1.17923445e+00  1.18355133e+00  1.18388690e+00  1.18556233e+00
  1.19554099e+00  1.30338984e+00  1.32660426e+00  1.38751899e+00
  1.40834645e+00  1.41039642e+00  1.41646655e+00  1.44679268e+00
  1.44851132e+00  1.46675132e+00  1.63254987e+00  1.68031586e+00
  1.70837108e+00  1.74150910e+00  1.78593838e+00  1.85645325e+00
  1.89459249e+00  1.90146425e+00  2.01429374e+00  2.08113408e+00
  2.09593067e+00  2.11082401e+00  2.11161144e+00  2.12843632e+00
  2.21350031e+00  2.23847962e+00  2.24664294e+00  2.26741881e+00
  2.27983900e+00  2.29281882e+00  2.48404411e+00  2.51499840e+00
  2.62520796e+00  2.62939909e+00  2.65051723e+00  2.67894844e+00
  2.71621113e+00  2.71909990e+00  2.96751722e+00  3.35507593e+00]
nelec by numeric integration = 68.00010506252421
    CPU time for vxc      6.12 sec, wall time      0.22 sec
E1 = -1773.296132953214  Ecoul = 722.6184649989101  Exc = -70.47504569247735
cycle= 2 E= -742.298933524941  delta_E=  5.7  |g|= 2.62  |ddm|= 4.29
    CPU time for cycle= 2      6.62 sec, wall time      0.24 sec
  HOMO = -0.175262970277288  LUMO = -0.0385466328346056
  mo_energy =
[-1.01258525e+02 -1.44113533e+01 -1.02248214e+01 -1.02224767e+01
 -1.02220627e+01 -1.01259153e+01 -1.01059409e+01 -1.01059225e+01
 -9.22128337e+00 -6.97561375e+00 -6.97475326e+00 -6.97472918e+00
 -9.89659194e-01 -7.83266274e-01 -7.73450527e-01 -7.21860832e-01
 -6.41186673e-01 -6.30558132e-01 -6.19703046e-01 -5.39290126e-01
 -4.85968907e-01 -4.72104565e-01 -4.64431241e-01 -4.56107869e-01
 -4.30204242e-01 -4.15938620e-01 -4.12469684e-01 -3.56248262e-01
 -3.34232548e-01 -2.80595519e-01 -2.62397057e-01 -1.92087238e-01
 -1.75568877e-01 -1.75262970e-01 -3.85466328e-02 -1.05089444e-02
  1.36130912e-02  8.48207967e-02  1.04786842e-01  1.16038898e-01
  1.36963005e-01  1.44481633e-01  1.59295329e-01  1.67797466e-01
  1.73160634e-01  1.89398200e-01  2.60953845e-01  2.88205119e-01
  3.11952950e-01  3.23897516e-01  4.07977801e-01  4.57450018e-01
  4.81943806e-01  4.84766186e-01  5.30337372e-01  5.30888560e-01
  5.41512945e-01  5.64448256e-01  5.68774105e-01  5.84453784e-01
  5.98235095e-01  6.06923972e-01  6.07594212e-01  6.25001307e-01
  6.28456413e-01  6.30241798e-01  6.38790251e-01  6.64569940e-01
  7.11660261e-01  7.20381168e-01  7.36874727e-01  8.04685636e-01
  8.12835830e-01  8.23218309e-01  8.53383979e-01  8.60630617e-01
  9.06003007e-01  9.07575138e-01  9.24226743e-01  9.28640074e-01
  9.32203186e-01  9.93784084e-01  1.00693827e+00  1.03588657e+00
  1.03873882e+00  1.04851193e+00  1.04958944e+00  1.07448228e+00
  1.08942842e+00  1.13873285e+00  1.17572742e+00  1.19093757e+00
  1.24967144e+00  1.35189692e+00  1.36532937e+00  1.38151104e+00
  1.43615975e+00  1.46249428e+00  1.47005539e+00  1.48296911e+00
  1.50825244e+00  1.50916954e+00  1.68939501e+00  1.73580102e+00
  1.73904683e+00  1.75152850e+00  1.84275167e+00  1.89834103e+00
  1.95209632e+00  1.96229292e+00  2.07626769e+00  2.14557651e+00
  2.15988897e+00  2.17222345e+00  2.17373628e+00  2.19044837e+00
  2.21745460e+00  2.23893198e+00  2.30557006e+00  2.31001967e+00
  2.33158373e+00  2.35667701e+00  2.54861216e+00  2.57604571e+00
  2.68416947e+00  2.69467616e+00  2.71365051e+00  2.74284375e+00
  2.78031243e+00  2.78487554e+00  3.03181377e+00  3.41909951e+00]
nelec by numeric integration = 68.0000946605041
    CPU time for vxc      6.04 sec, wall time      0.22 sec
E1 = -1772.3257225455  Ecoul = 715.6982734946737  Exc = -70.25657232074973
cycle= 3 E= -748.030241249736  delta_E= -5.73  |g|= 0.441  |ddm|=  3.9
    CPU time for cycle= 3      6.56 sec, wall time      0.23 sec
  HOMO = -0.177547912861063  LUMO = -0.0735835407716971
  mo_energy =
[-1.01327448e+02 -1.43761562e+01 -1.02577752e+01 -1.02566366e+01
 -1.02559519e+01 -1.02403558e+01 -1.02402175e+01 -1.02144169e+01
 -9.26922433e+00 -7.02673828e+00 -7.02412748e+00 -7.02410815e+00
 -9.97910127e-01 -8.55438280e-01 -8.12169462e-01 -7.12010720e-01
 -6.81945993e-01 -6.71406284e-01 -6.30413712e-01 -5.73042612e-01
 -5.29835528e-01 -5.15721243e-01 -4.80241208e-01 -4.59059402e-01
 -4.54628654e-01 -4.29350438e-01 -4.23477137e-01 -4.14347841e-01
 -3.49769038e-01 -3.34694484e-01 -3.08669570e-01 -1.91701606e-01
 -1.77770862e-01 -1.77547913e-01 -7.35835408e-02 -5.58666362e-02
  2.07520523e-02  6.97040975e-02  9.83220924e-02  9.98794301e-02
  1.03672557e-01  1.25873204e-01  1.39471826e-01  1.50312534e-01
  1.80969386e-01  1.89894957e-01  2.34467673e-01  2.50620068e-01
  2.79543006e-01  2.88970776e-01  3.90072090e-01  4.20124134e-01
  4.66005246e-01  4.86039725e-01  4.95602795e-01  5.09201397e-01
  5.38253755e-01  5.41840789e-01  5.46444674e-01  5.53403985e-01
  5.56211713e-01  5.60774442e-01  5.64912117e-01  5.92646298e-01
  5.96695796e-01  6.05338567e-01  6.23594709e-01  6.38949601e-01
  6.65224069e-01  7.20392434e-01  7.36418948e-01  7.84511106e-01
  7.89002902e-01  7.90764408e-01  8.15323068e-01  8.29729427e-01
  8.77611393e-01  8.82222308e-01  9.10741312e-01  9.20773926e-01
  9.31222041e-01  9.77222779e-01  9.87155152e-01  1.02699889e+00
  1.03041825e+00  1.03206922e+00  1.04227383e+00  1.06090234e+00
  1.06974044e+00  1.11983581e+00  1.14307310e+00  1.15734349e+00
  1.20278420e+00  1.32752460e+00  1.35163104e+00  1.35860246e+00
  1.41352401e+00  1.42663005e+00  1.43052334e+00  1.44913559e+00
  1.46339915e+00  1.46462000e+00  1.67183571e+00  1.71954596e+00
  1.72517292e+00  1.76506005e+00  1.79376289e+00  1.86133701e+00
  1.89141430e+00  1.91585508e+00  2.01732302e+00  2.09514463e+00
  2.11035383e+00  2.12162436e+00  2.13032489e+00  2.15339977e+00
  2.22837627e+00  2.25599545e+00  2.25784289e+00  2.27957478e+00
  2.30549283e+00  2.32112626e+00  2.51525989e+00  2.52414519e+00
  2.62565641e+00  2.65302740e+00  2.66829469e+00  2.69106819e+00
  2.73461292e+00  2.73616126e+00  2.99312650e+00  3.37051103e+00]
nelec by numeric integration = 68.00008925905395
    CPU time for vxc      5.88 sec, wall time      0.21 sec
E1 = -1773.9721633523422  Ecoul = 717.429559107452  Exc = -70.39403565720554
cycle= 4 E= -748.082859780256  delta_E= -0.0526  |g|= 0.109  |ddm|= 0.531
    CPU time for cycle= 4      6.42 sec, wall time      0.23 sec
  HOMO = -0.206250412822841  LUMO = -0.0785827914019511
  mo_energy =
[-1.01418276e+02 -1.44196608e+01 -1.02763516e+01 -1.02763206e+01
 -1.02438791e+01 -1.02430521e+01 -1.02429173e+01 -1.02385385e+01
 -9.34254132e+00 -7.10249916e+00 -7.09870947e+00 -7.09869951e+00
 -1.01541822e+00 -8.55364464e-01 -8.20237403e-01 -7.25444372e-01
 -6.89672592e-01 -6.78623135e-01 -6.58063078e-01 -5.76528303e-01
 -5.36854041e-01 -5.18168944e-01 -4.85502689e-01 -4.70583221e-01
 -4.56437585e-01 -4.38218543e-01 -4.31552189e-01 -4.17095824e-01
 -3.64461066e-01 -3.38391447e-01 -3.14416426e-01 -2.19437085e-01
 -2.06483571e-01 -2.06250413e-01 -7.85827914e-02 -6.03286553e-02
  5.82102942e-03  6.84111439e-02  9.44552260e-02  9.53110610e-02
  1.00602437e-01  1.23594342e-01  1.37682185e-01  1.49700146e-01
  1.75205693e-01  1.84379339e-01  2.30408131e-01  2.49592788e-01
  2.73493544e-01  2.84465499e-01  3.85844080e-01  4.14603570e-01
  4.60489112e-01  4.66789182e-01  4.91166460e-01  5.03337325e-01
  5.25489145e-01  5.33343895e-01  5.40104569e-01  5.44770276e-01
  5.49889073e-01  5.60639115e-01  5.62700907e-01  5.85858370e-01
  5.91114999e-01  5.91333156e-01  6.19294019e-01  6.22650689e-01
  6.63035298e-01  7.08735356e-01  7.20512437e-01  7.77714879e-01
  7.83385676e-01  7.94036400e-01  8.12587578e-01  8.13837371e-01
  8.77755838e-01  8.80833314e-01  9.03848068e-01  9.09580897e-01
  9.19973033e-01  9.68199372e-01  9.77636309e-01  9.95963109e-01
  1.00208394e+00  1.00896173e+00  1.01024682e+00  1.04446038e+00
  1.06172723e+00  1.11557221e+00  1.13659806e+00  1.15336608e+00
  1.19621370e+00  1.32173532e+00  1.32876259e+00  1.35135784e+00
  1.40888125e+00  1.42367612e+00  1.42521160e+00  1.44288371e+00
  1.45347074e+00  1.45363440e+00  1.66258324e+00  1.70863906e+00
  1.71641666e+00  1.75188235e+00  1.79179200e+00  1.85510031e+00
  1.89093712e+00  1.91055770e+00  2.01405593e+00  2.08925292e+00
  2.10568144e+00  2.11926409e+00  2.12016827e+00  2.14465339e+00
  2.21872275e+00  2.24542937e+00  2.25085430e+00  2.27519213e+00
  2.29343569e+00  2.31096602e+00  2.50870611e+00  2.51934315e+00
  2.62095132e+00  2.64376861e+00  2.66135029e+00  2.68393719e+00
  2.72661343e+00  2.73124714e+00  2.98297511e+00  3.36352894e+00]
nelec by numeric integration = 68.00008799142503
    CPU time for vxc      5.93 sec, wall time      0.21 sec
E1 = -1775.331838224448  Ecoul = 718.8850873927402  Exc = -70.49192348088629
cycle= 5 E= -748.084894190754  delta_E= -0.00203  |g|= 0.0613  |ddm|= 0.196
    CPU time for cycle= 5      6.43 sec, wall time      0.23 sec
  HOMO = -0.196120548695417  LUMO = -0.0775141382951609
  mo_energy =
[-1.01391978e+02 -1.44072782e+01 -1.02726171e+01 -1.02721793e+01
 -1.02516584e+01 -1.02433634e+01 -1.02407175e+01 -1.02406679e+01
 -9.32077080e+00 -7.08063096e+00 -7.07634282e+00 -7.07633429e+00
 -1.01029873e+00 -8.55879106e-01 -8.18372933e-01 -7.24257001e-01
 -6.88449922e-01 -6.77164115e-01 -6.49962376e-01 -5.77037648e-01
 -5.35947911e-01 -5.18971269e-01 -4.84926655e-01 -4.68993605e-01
 -4.57607379e-01 -4.39522830e-01 -4.32055136e-01 -4.17802746e-01
 -3.62196684e-01 -3.38371861e-01 -3.13540753e-01 -2.11084930e-01
 -1.96358302e-01 -1.96120549e-01 -7.75141383e-02 -5.92910978e-02
  8.22442129e-03  6.72597040e-02  9.40061565e-02  9.56622652e-02
  1.00177646e-01  1.22791306e-01  1.36700738e-01  1.48342982e-01
  1.74958708e-01  1.84290823e-01  2.30547979e-01  2.48682661e-01
  2.74406247e-01  2.84437615e-01  3.85186841e-01  4.15745785e-01
  4.60906976e-01  4.74016455e-01  4.91271056e-01  5.03822077e-01
  5.30190085e-01  5.35115927e-01  5.42237501e-01  5.48164033e-01
  5.50633657e-01  5.59878323e-01  5.61787362e-01  5.86474841e-01
  5.91397706e-01  5.95037437e-01  6.19317986e-01  6.27577086e-01
  6.62341724e-01  7.10265864e-01  7.24491917e-01  7.78812984e-01
  7.84355855e-01  7.91278289e-01  8.12254044e-01  8.17030875e-01
  8.76520058e-01  8.80061947e-01  9.03799753e-01  9.10179312e-01
  9.20986256e-01  9.69129032e-01  9.79962747e-01  1.00890484e+00
  1.01228376e+00  1.01637553e+00  1.02013817e+00  1.04783664e+00
  1.06225700e+00  1.11526451e+00  1.13640145e+00  1.15347635e+00
  1.19712039e+00  1.32268902e+00  1.33582486e+00  1.35167802e+00
  1.40868232e+00  1.42368402e+00  1.42587031e+00  1.44288296e+00
  1.45511180e+00  1.45539650e+00  1.66409362e+00  1.71056792e+00
  1.71643383e+00  1.75082623e+00  1.79134803e+00  1.85426651e+00
  1.89027120e+00  1.91151756e+00  2.01429799e+00  2.09028011e+00
  2.10612450e+00  2.11907294e+00  2.12214642e+00  2.14583881e+00
  2.21707061e+00  2.24381449e+00  2.25168254e+00  2.27500396e+00
  2.29352718e+00  2.31272027e+00  2.50976984e+00  2.52003679e+00
  2.62138708e+00  2.64485766e+00  2.66243844e+00  2.68516511e+00
  2.72800906e+00  2.73205757e+00  2.98495427e+00  3.36459067e+00]
nelec by numeric integration = 68.00008859466703
    CPU time for vxc      5.93 sec, wall time      0.21 sec
E1 = -1774.9520353952478  Ecoul = 718.4769021301006  Exc = -70.46482067814019
cycle= 6 E= -748.086173821447  delta_E= -0.00128  |g|= 0.0192  |ddm|= 0.0874
    CPU time for cycle= 6      6.44 sec, wall time      0.23 sec
  HOMO = -0.19386441967002  LUMO = -0.0774079232494335
  mo_energy =
[-1.01386390e+02 -1.44079030e+01 -1.02723310e+01 -1.02720539e+01
 -1.02502249e+01 -1.02419003e+01 -1.02417839e+01 -1.02333864e+01
 -9.31613540e+00 -7.07610145e+00 -7.07151493e+00 -7.07150745e+00
 -1.01062357e+00 -8.56121635e-01 -8.18811757e-01 -7.20794565e-01
 -6.88721964e-01 -6.77023106e-01 -6.47277446e-01 -5.76972142e-01
 -5.36200363e-01 -5.19449984e-01 -4.85276529e-01 -4.68046471e-01
 -4.57342776e-01 -4.36083801e-01 -4.29783701e-01 -4.18143081e-01
 -3.61109254e-01 -3.38492254e-01 -3.14069432e-01 -2.08713415e-01
 -1.94104310e-01 -1.93864420e-01 -7.74079232e-02 -5.95403502e-02
  1.13073419e-02  6.75431054e-02  9.47593504e-02  9.54566642e-02
  1.00396224e-01  1.22967936e-01  1.36747100e-01  1.48453760e-01
  1.77041499e-01  1.85469116e-01  2.30732562e-01  2.48416571e-01
  2.74167544e-01  2.84398029e-01  3.85599413e-01  4.15314277e-01
  4.60944146e-01  4.75832876e-01  4.91050623e-01  5.05073770e-01
  5.31102268e-01  5.35486403e-01  5.42087002e-01  5.49187118e-01
  5.50540310e-01  5.59724659e-01  5.61557907e-01  5.87003641e-01
  5.92345040e-01  5.95889806e-01  6.19117940e-01  6.29367172e-01
  6.62494542e-01  7.12053514e-01  7.26647470e-01  7.79011982e-01
  7.84525965e-01  7.91163129e-01  8.11835236e-01  8.17530702e-01
  8.76384020e-01  8.79880444e-01  9.04982613e-01  9.13276093e-01
  9.23637291e-01  9.69498169e-01  9.81089971e-01  1.01194703e+00
  1.01503818e+00  1.01754224e+00  1.02285193e+00  1.04918228e+00
  1.06297228e+00  1.11583884e+00  1.13707568e+00  1.15343044e+00
  1.19677042e+00  1.32249050e+00  1.33836839e+00  1.35169329e+00
  1.40848173e+00  1.42331101e+00  1.42575398e+00  1.44312189e+00
  1.45494920e+00  1.45614058e+00  1.66401666e+00  1.71119870e+00
  1.71832848e+00  1.75487772e+00  1.79118100e+00  1.85607174e+00
  1.88993595e+00  1.91107090e+00  2.01406797e+00  2.08978272e+00
  2.10600024e+00  2.11887662e+00  2.12195986e+00  2.14578046e+00
  2.22088338e+00  2.24796363e+00  2.25132447e+00  2.27492342e+00
  2.29634431e+00  2.31261937e+00  2.50972270e+00  2.51968779e+00
  2.62113574e+00  2.64459934e+00  2.66256195e+00  2.68487666e+00
  2.72775733e+00  2.73199766e+00  2.98491170e+00  3.36447787e+00]
nelec by numeric integration = 68.00008843996577
    CPU time for vxc      6.08 sec, wall time      0.22 sec
E1 = -1774.8764763038855  Ecoul = 718.3951656876766  Exc = -70.45875866712763
cycle= 7 E= -748.086289161496  delta_E= -0.000115  |g|= 0.00421  |ddm|= 0.0237
    CPU time for cycle= 7      6.66 sec, wall time      0.24 sec
  HOMO = -0.193913332779246  LUMO = -0.0771797046429389
  mo_energy =
[-1.01386246e+02 -1.44070371e+01 -1.02721324e+01 -1.02718212e+01
 -1.02500362e+01 -1.02413644e+01 -1.02413066e+01 -1.02347550e+01
 -9.31600908e+00 -7.07604876e+00 -7.07134559e+00 -7.07133912e+00
 -1.01056150e+00 -8.56039940e-01 -8.18660141e-01 -7.21096426e-01
 -6.88531582e-01 -6.76859812e-01 -6.47296995e-01 -5.76874767e-01
 -5.35992062e-01 -5.19236266e-01 -4.85153496e-01 -4.68058012e-01
 -4.57268779e-01 -4.36400684e-01 -4.29995769e-01 -4.17954987e-01
 -3.61014331e-01 -3.38381026e-01 -3.13948543e-01 -2.08708123e-01
 -1.94154748e-01 -1.93913333e-01 -7.71797046e-02 -5.93573128e-02
  1.10157282e-02  6.75208292e-02  9.47582284e-02  9.56442226e-02
  1.00426538e-01  1.23021875e-01  1.36817644e-01  1.48494811e-01
  1.76893233e-01  1.85422895e-01  2.30755246e-01  2.48536102e-01
  2.74283391e-01  2.84518083e-01  3.85655744e-01  4.15337267e-01
  4.60968017e-01  4.75899080e-01  4.91188476e-01  5.05011793e-01
  5.31144528e-01  5.35571686e-01  5.42160471e-01  5.49236170e-01
  5.50550933e-01  5.59820741e-01  5.61672348e-01  5.87104110e-01
  5.92323052e-01  5.95895607e-01  6.19202240e-01  6.29261293e-01
  6.62533660e-01  7.11955327e-01  7.26551324e-01  7.79099195e-01
  7.84613523e-01  7.91256857e-01  8.11990939e-01  8.17649014e-01
  8.76484932e-01  8.80004638e-01  9.04950545e-01  9.13014733e-01
  9.23436718e-01  9.69615482e-01  9.81097669e-01  1.01203140e+00
  1.01510768e+00  1.01759020e+00  1.02285694e+00  1.04919552e+00
  1.06297575e+00  1.11583123e+00  1.13706514e+00  1.15347519e+00
  1.19690636e+00  1.32256456e+00  1.33830668e+00  1.35172817e+00
  1.40854721e+00  1.42344403e+00  1.42586593e+00  1.44317105e+00
  1.45506377e+00  1.45615595e+00  1.66409888e+00  1.71125751e+00
  1.71818372e+00  1.75444299e+00  1.79125378e+00  1.85593696e+00
  1.89003657e+00  1.91120537e+00  2.01415668e+00  2.08988137e+00
  2.10610953e+00  2.11896707e+00  2.12209682e+00  2.14589427e+00
  2.22049599e+00  2.24753928e+00  2.25146513e+00  2.27506882e+00
  2.29608204e+00  2.31270692e+00  2.50979911e+00  2.51977994e+00
  2.62125356e+00  2.64479309e+00  2.66272948e+00  2.68509895e+00
  2.72790738e+00  2.73215804e+00  2.98511941e+00  3.36470395e+00]
nelec by numeric integration = 68.00008851499722
    CPU time for vxc      6.04 sec, wall time      0.22 sec
E1 = -1774.87535493679  Ecoul = 718.3934486981212  Exc = -70.45816926630015
cycle= 8 E= -748.086295383129  delta_E= -6.22e-06  |g|= 0.00208  |ddm|= 0.00608
    CPU time for cycle= 8      6.59 sec, wall time      0.24 sec
  HOMO = -0.193681759279251  LUMO = -0.077298676208981
  mo_energy =
[-1.01385726e+02 -1.44073304e+01 -1.02721594e+01 -1.02718568e+01
 -1.02504174e+01 -1.02416460e+01 -1.02415253e+01 -1.02343258e+01
 -9.31554320e+00 -7.07560408e+00 -7.07086139e+00 -7.07085514e+00
 -1.01066237e+00 -8.56226657e-01 -8.18769319e-01 -7.20895736e-01
 -6.88675091e-01 -6.76953214e-01 -6.47062249e-01 -5.76970978e-01
 -5.36142054e-01 -5.19372449e-01 -4.85235090e-01 -4.68062921e-01
 -4.57407012e-01 -4.36190764e-01 -4.29879624e-01 -4.18102218e-01
 -3.61044836e-01 -3.38535460e-01 -3.14049562e-01 -2.08491244e-01
 -1.93923364e-01 -1.93681759e-01 -7.72986762e-02 -5.94534791e-02
  1.11431069e-02  6.74447754e-02  9.47766098e-02  9.55123895e-02
  1.00412859e-01  1.22969935e-01  1.36769138e-01  1.48443545e-01
  1.77040894e-01  1.85482016e-01  2.30693901e-01  2.48412467e-01
  2.74179494e-01  2.84428278e-01  3.85612674e-01  4.15249093e-01
  4.60911068e-01  4.76039697e-01  4.91064475e-01  5.05041179e-01
  5.31171420e-01  5.35578248e-01  5.42088715e-01  5.49316138e-01
  5.50478231e-01  5.59694117e-01  5.61547700e-01  5.87062987e-01
  5.92321880e-01  5.95925665e-01  6.19119981e-01  6.29426116e-01
  6.62457033e-01  7.12056069e-01  7.26677529e-01  7.79069264e-01
  7.84575408e-01  7.91087441e-01  8.11885332e-01  8.17606503e-01
  8.76363633e-01  8.79867641e-01  9.04977858e-01  9.13214953e-01
  9.23614783e-01  9.69562518e-01  9.81135534e-01  1.01234516e+00
  1.01537780e+00  1.01766895e+00  1.02312175e+00  1.04928244e+00
  1.06296805e+00  1.11578360e+00  1.13701954e+00  1.15339572e+00
  1.19676382e+00  1.32245260e+00  1.33850104e+00  1.35164780e+00
  1.40846672e+00  1.42326962e+00  1.42574887e+00  1.44304529e+00
  1.45497375e+00  1.45617050e+00  1.66399758e+00  1.71122133e+00
  1.71821632e+00  1.75464712e+00  1.79112093e+00  1.85594239e+00
  1.88987078e+00  1.91109825e+00  2.01402070e+00  2.08975914e+00
  2.10598833e+00  2.11880613e+00  2.12199900e+00  2.14577637e+00
  2.22069650e+00  2.24777344e+00  2.25135086e+00  2.27489643e+00
  2.29618573e+00  2.31260436e+00  2.50967650e+00  2.51966150e+00
  2.62111351e+00  2.64464825e+00  2.66259106e+00  2.68496397e+00
  2.72778276e+00  2.73199090e+00  2.98499088e+00  3.36455567e+00]
nelec by numeric integration = 68.00008849443716
    CPU time for vxc      6.06 sec, wall time      0.25 sec
E1 = -1774.873062670254  Ecoul = 718.3910715848106  Exc = -70.45808599784162
cycle= 9 E= -748.086296961445  delta_E= -1.58e-06  |g|= 0.000739  |ddm|= 0.00292
    CPU time for cycle= 9      6.59 sec, wall time      0.27 sec
  HOMO = -0.193577735336968  LUMO = -0.0773301400392848
  mo_energy =
[-1.01385589e+02 -1.44072296e+01 -1.02723424e+01 -1.02720309e+01
 -1.02503420e+01 -1.02416966e+01 -1.02416209e+01 -1.02342379e+01
 -9.31540344e+00 -7.07547094e+00 -7.07071872e+00 -7.07071253e+00
 -1.01070464e+00 -8.56257416e-01 -8.18858001e-01 -7.20847564e-01
 -6.88728604e-01 -6.77002942e-01 -6.46973373e-01 -5.77021573e-01
 -5.36200016e-01 -5.19444393e-01 -4.85316441e-01 -4.68083338e-01
 -4.57421535e-01 -4.36152987e-01 -4.29867993e-01 -4.18156442e-01
 -3.61048945e-01 -3.38555777e-01 -3.14137335e-01 -2.08399215e-01
 -1.93819442e-01 -1.93577735e-01 -7.73301400e-02 -5.95248547e-02
  1.11779579e-02  6.74216684e-02  9.47555786e-02  9.54592189e-02
  1.00377341e-01  1.22937923e-01  1.36725928e-01  1.48416275e-01
  1.77070008e-01  1.85478654e-01  2.30660558e-01  2.48364356e-01
  2.74122510e-01  2.84377523e-01  3.85580941e-01  4.15189682e-01
  4.60852716e-01  4.76128350e-01  4.91017686e-01  5.05046388e-01
  5.31157032e-01  5.35562897e-01  5.42031492e-01  5.49350338e-01
  5.50436241e-01  5.59665562e-01  5.61491096e-01  5.87036294e-01
  5.92322720e-01  5.95923828e-01  6.19060662e-01  6.29477243e-01
  6.62422672e-01  7.12058496e-01  7.26716267e-01  7.79012597e-01
  7.84537666e-01  7.91065826e-01  8.11818632e-01  8.17609270e-01
  8.76322084e-01  8.79827870e-01  9.04955385e-01  9.13260834e-01
  9.23647823e-01  9.69531307e-01  9.81134201e-01  1.01247364e+00
  1.01548662e+00  1.01768652e+00  1.02323163e+00  1.04930746e+00
  1.06295131e+00  1.11575355e+00  1.13699440e+00  1.15334899e+00
  1.19670122e+00  1.32239297e+00  1.33857762e+00  1.35162351e+00
  1.40841238e+00  1.42322262e+00  1.42568356e+00  1.44302233e+00
  1.45488056e+00  1.45617097e+00  1.66395624e+00  1.71118964e+00
  1.71820244e+00  1.75468466e+00  1.79107753e+00  1.85593914e+00
  1.88983167e+00  1.91101522e+00  2.01395916e+00  2.08968181e+00
  2.10592643e+00  2.11876725e+00  2.12192463e+00  2.14572130e+00
  2.22073215e+00  2.24781778e+00  2.25126489e+00  2.27486131e+00
  2.29619671e+00  2.31255048e+00  2.50963363e+00  2.51959013e+00
  2.62105705e+00  2.64458385e+00  2.66254900e+00  2.68488552e+00
  2.72771572e+00  2.73196033e+00  2.98493699e+00  3.36449609e+00]
nelec by numeric integration = 68.0000884911835
    CPU time for vxc      5.89 sec, wall time      0.21 sec
E1 = -1774.87185880527  Ecoul = 718.389735061464  Exc = -70.45795352189208
cycle= 10 E= -748.086297143858  delta_E= -1.82e-07  |g|= 0.000285  |ddm|= 0.00101
    CPU time for cycle= 10      6.39 sec, wall time      0.23 sec
  HOMO = -0.193501479369359  LUMO = -0.0773787747984346
  mo_energy =
[-1.01385546e+02 -1.44073114e+01 -1.02723450e+01 -1.02720491e+01
 -1.02504162e+01 -1.02417529e+01 -1.02416580e+01 -1.02341787e+01
 -9.31534226e+00 -7.07541549e+00 -7.07065744e+00 -7.07065132e+00
 -1.01075615e+00 -8.56318007e-01 -8.18903442e-01 -7.20819289e-01
 -6.88779700e-01 -6.77038682e-01 -6.46911871e-01 -5.77065179e-01
 -5.36250682e-01 -5.19493377e-01 -4.85357610e-01 -4.68109590e-01
 -4.57472073e-01 -4.36125116e-01 -4.29863397e-01 -4.18208176e-01
 -3.61068937e-01 -3.38613196e-01 -3.14183372e-01 -2.08340147e-01
 -1.93743219e-01 -1.93501479e-01 -7.73787748e-02 -5.95665594e-02
  1.11958927e-02  6.73854111e-02  9.47446696e-02  9.54100550e-02
  1.00356682e-01  1.22905450e-01  1.36696657e-01  1.48385674e-01
  1.77092723e-01  1.85477313e-01  2.30625562e-01  2.48314899e-01
  2.74078734e-01  2.84338315e-01  3.85551088e-01  4.15145306e-01
  4.60816709e-01  4.76200184e-01  4.90969582e-01  5.05038976e-01
  5.31150728e-01  5.35558458e-01  5.41995352e-01  5.49375325e-01
  5.50401116e-01  5.59621382e-01  5.61443991e-01  5.87016354e-01
  5.92311873e-01  5.95921330e-01  6.19021373e-01  6.29512925e-01
  6.62388233e-01  7.12069587e-01  7.26742950e-01  7.78991133e-01
  7.84512672e-01  7.91010832e-01  8.11777598e-01  8.17577752e-01
  8.76276802e-01  8.79779043e-01  9.04942654e-01  9.13292071e-01
  9.23673676e-01  9.69498044e-01  9.81127953e-01  1.01256266e+00
  1.01556054e+00  1.01769917e+00  1.02330635e+00  1.04932285e+00
  1.06293144e+00  1.11572297e+00  1.13696620e+00  1.15330804e+00
  1.19664847e+00  1.32234453e+00  1.33862339e+00  1.35158257e+00
  1.40836829e+00  1.42316445e+00  1.42563710e+00  1.44297196e+00
  1.45483466e+00  1.45615502e+00  1.66391016e+00  1.71115869e+00
  1.71818871e+00  1.75470692e+00  1.79102607e+00  1.85592065e+00
  1.88977409e+00  1.91096913e+00  2.01390853e+00  2.08963149e+00
  2.10587991e+00  2.11871011e+00  2.12188005e+00  2.14567246e+00
  2.22075530e+00  2.24784916e+00  2.25121949e+00  2.27480455e+00
  2.29619883e+00  2.31250371e+00  2.50958449e+00  2.51954221e+00
  2.62100613e+00  2.64453297e+00  2.66250231e+00  2.68483924e+00
  2.72766925e+00  2.73190683e+00  2.98489225e+00  3.36444776e+00]
nelec by numeric integration = 68.00008848780043
    CPU time for vxc      5.90 sec, wall time      0.21 sec
E1 = -1774.8719949348256  Ecoul = 718.3898750384395  Exc = -70.45795740074144
cycle= 11 E= -748.086297175287  delta_E= -3.14e-08  |g|= 4.96e-05  |ddm|= 0.000643
    CPU time for cycle= 11      6.40 sec, wall time      0.23 sec
  HOMO = -0.193502668383101  LUMO = -0.0773746813346251
  mo_energy =
[-1.01385550e+02 -1.44072990e+01 -1.02723483e+01 -1.02720364e+01
 -1.02504092e+01 -1.02417378e+01 -1.02416530e+01 -1.02341770e+01
 -9.31534620e+00 -7.07541946e+00 -7.07066135e+00 -7.07065525e+00
 -1.01075131e+00 -8.56312779e-01 -8.18898998e-01 -7.20815502e-01
 -6.88775048e-01 -6.77034558e-01 -6.46912460e-01 -5.77061634e-01
 -5.36245468e-01 -5.19489457e-01 -4.85353933e-01 -4.68105625e-01
 -4.57467721e-01 -4.36121203e-01 -4.29859149e-01 -4.18203791e-01
 -3.61064643e-01 -3.38608588e-01 -3.14179472e-01 -2.08339941e-01
 -1.93744432e-01 -1.93502668e-01 -7.73746813e-02 -5.95625845e-02
  1.11983670e-02  6.73878907e-02  9.47462797e-02  9.54141954e-02
  1.00359141e-01  1.22907817e-01  1.36698688e-01  1.48388644e-01
  1.77095989e-01  1.85479714e-01  2.30629309e-01  2.48318171e-01
  2.74081706e-01  2.84342200e-01  3.85553976e-01  4.15148564e-01
  4.60819226e-01  4.76196704e-01  4.90973424e-01  5.05041941e-01
  5.31152795e-01  5.35561067e-01  5.41998695e-01  5.49376118e-01
  5.50404157e-01  5.59624722e-01  5.61447847e-01  5.87020199e-01
  5.92314489e-01  5.95923631e-01  6.19024733e-01  6.29515880e-01
  6.62391028e-01  7.12072185e-01  7.26744481e-01  7.78991590e-01
  7.84517665e-01  7.91014563e-01  8.11780916e-01  8.17581570e-01
  8.76280320e-01  8.79782773e-01  9.04946170e-01  9.13295275e-01
  9.23676797e-01  9.69502073e-01  9.81130310e-01  1.01256078e+00
  1.01555926e+00  1.01769990e+00  1.02330463e+00  1.04932370e+00
  1.06293379e+00  1.11572523e+00  1.13696923e+00  1.15331114e+00
  1.19665314e+00  1.32234886e+00  1.33862444e+00  1.35158570e+00
  1.40837087e+00  1.42316923e+00  1.42564199e+00  1.44297659e+00
  1.45483871e+00  1.45615882e+00  1.66391408e+00  1.71116257e+00
  1.71819324e+00  1.75471127e+00  1.79103003e+00  1.85592553e+00
  1.88977875e+00  1.91097340e+00  2.01391317e+00  2.08963583e+00
  2.10588481e+00  2.11871494e+00  2.12188434e+00  2.14567701e+00
  2.22075942e+00  2.24785290e+00  2.25122392e+00  2.27480957e+00
  2.29620303e+00  2.31250799e+00  2.50958881e+00  2.51954654e+00
  2.62101079e+00  2.64453764e+00  2.66250747e+00  2.68484431e+00
  2.72767390e+00  2.73191198e+00  2.98489708e+00  3.36445283e+00]
nelec by numeric integration = 68.00008848866008
    CPU time for vxc      5.89 sec, wall time      0.21 sec
E1 = -1774.871836812209  Ecoul = 718.3897056382  Exc = -70.45794612374893
cycle= 12 E= -748.086297175918  delta_E= -6.3e-10  |g|= 1.82e-05  |ddm|= 7.17e-05
    CPU time for cycle= 12      6.40 sec, wall time      0.23 sec
  HOMO = -0.193502623612514  LUMO = -0.0773743585577872
  mo_energy =
[-1.01385546e+02 -1.44072965e+01 -1.02723366e+01 -1.02720462e+01
 -1.02504086e+01 -1.02417509e+01 -1.02416514e+01 -1.02341778e+01
 -9.31534398e+00 -7.07541708e+00 -7.07065895e+00 -7.07065287e+00
 -1.01075001e+00 -8.56313283e-01 -8.18899328e-01 -7.20815732e-01
 -6.88775044e-01 -6.77034782e-01 -6.46912326e-01 -5.77061380e-01
 -5.36245707e-01 -5.19489877e-01 -4.85354200e-01 -4.68105275e-01
 -4.57467260e-01 -4.36121274e-01 -4.29859396e-01 -4.18204103e-01
 -3.61064291e-01 -3.38608482e-01 -3.14179963e-01 -2.08339733e-01
 -1.93744391e-01 -1.93502624e-01 -7.73743586e-02 -5.95629600e-02
  1.11982103e-02  6.73881250e-02  9.47469059e-02  9.54141033e-02
  1.00358634e-01  1.22908083e-01  1.36698900e-01  1.48387757e-01
  1.77095449e-01  1.85480293e-01  2.30629125e-01  2.48318191e-01
  2.74082693e-01  2.84341724e-01  3.85553915e-01  4.15148610e-01
  4.60819918e-01  4.76196844e-01  4.90973361e-01  5.05041807e-01
  5.31153227e-01  5.35560688e-01  5.41997742e-01  5.49376174e-01
  5.50404181e-01  5.59624809e-01  5.61447484e-01  5.87019040e-01
  5.92314218e-01  5.95924466e-01  6.19024163e-01  6.29515776e-01
  6.62391345e-01  7.12072299e-01  7.26744408e-01  7.78994599e-01
  7.84514324e-01  7.91014538e-01  8.11780417e-01  8.17582284e-01
  8.76280032e-01  8.79782722e-01  9.04945785e-01  9.13294922e-01
  9.23676552e-01  9.69501639e-01  9.81131027e-01  1.01256098e+00
  1.01555951e+00  1.01769993e+00  1.02330478e+00  1.04932376e+00
  1.06293394e+00  1.11572570e+00  1.13696907e+00  1.15331121e+00
  1.19665300e+00  1.32234890e+00  1.33862449e+00  1.35158620e+00
  1.40837123e+00  1.42316926e+00  1.42564118e+00  1.44297698e+00
  1.45483875e+00  1.45615938e+00  1.66391453e+00  1.71116304e+00
  1.71819305e+00  1.75471114e+00  1.79102997e+00  1.85592506e+00
  1.88977849e+00  1.91097303e+00  2.01391293e+00  2.08963554e+00
  2.10588412e+00  2.11871487e+00  2.12188458e+00  2.14567727e+00
  2.22075891e+00  2.24785273e+00  2.25122337e+00  2.27480958e+00
  2.29620304e+00  2.31250851e+00  2.50958933e+00  2.51954599e+00
  2.62101060e+00  2.64453769e+00  2.66250733e+00  2.68484382e+00
  2.72767371e+00  2.73191198e+00  2.98489723e+00  3.36445263e+00]
nelec by numeric integration = 68.00008848840415
    CPU time for vxc      5.83 sec, wall time      0.21 sec
E1 = -1774.8718311854655  Ecoul = 718.3897000558546  Exc = -70.45794616792496
Extra cycle  E= -748.086297175696  delta_E= 2.22e-10  |g|= 3.35e-05  |ddm|= 4.99e-05
    CPU time for scf_cycle    100.57 sec, wall time      3.71 sec
    CPU time for SCF    100.57 sec, wall time      3.71 sec
converged SCF energy = -748.086297175696
Converting <class 'pyscf.dft.rks.RKS'> to RHF


******** <class 'pyscf.tdscf.rks.TDA'> for <class 'pyscf.dft.rks.RKS'> ********
nstates = 10 singlet
wfnsym = None
conv_tol = 1e-09
eigh lindep = 1e-12
eigh level_shift = 0
eigh max_space = 50
eigh max_cycle = 100
chkfile = /scratch/global/yangjunjie/tmp7xszwtgx
max_memory 127949 MB (current use 604 MB)


davidson 0 10  |r|= 0.195  e= [0.09728485 0.09767507 0.10686867 0.11544321 0.11562615 0.12438059
 0.16669016 0.16703239 0.27611114 0.28623876]  max|de|= 0.286  lindep=    1
davidson 1 20  |r|= 0.059  e= [0.09721694 0.09746467 0.10593252 0.11541122 0.11561063 0.12375482
 0.16507902 0.16540355 0.22278554 0.24169872]  max|de|= -0.0533  lindep= 0.715
davidson 2 30  |r|= 0.0369  e= [0.09721687 0.09744872 0.10586456 0.11540861 0.11561034 0.12374074
 0.16479118 0.16510475 0.21308393 0.23679209]  max|de|= -0.0097  lindep= 0.888
davidson 3 40  |r|= 0.019  e= [0.09721686 0.09744759 0.10586367 0.11540854 0.11561034 0.12374027
 0.1647786  0.16509174 0.21169747 0.23412151]  max|de|= -0.00267  lindep= 0.868
root 0 converged  |r|= 2.76e-07  e= 0.09721686495332514  max|de|= -8.83e-12
root 4 converged  |r|= 9.35e-07  e= 0.11561033701291032  max|de|= -7.77e-11
davidson 4 50  |r|= 0.0106  e= [0.09721686 0.09744757 0.10586366 0.11540854 0.11561034 0.12374027
 0.16477828 0.1650914  0.21164561 0.23342262]  max|de|= -0.000699  lindep= 0.79
root 1 converged  |r|= 4.51e-06  e= 0.097447570572288  max|de|= -7.42e-10
root 2 converged  |r|= 1.02e-06  e= 0.10586366039617624  max|de|= -9.83e-11
root 3 converged  |r|= 1.49e-06  e= 0.11540854001264003  max|de|= -6.4e-11
root 5 converged  |r|= 8.16e-07  e= 0.12374026639677017  max|de|= -4.62e-11
davidson 5 58  |r|= 0.00564  e= [0.09721686 0.09744757 0.10586366 0.11540854 0.11561034 0.12374027
 0.16477826 0.16509136 0.21163718 0.23318031]  max|de|= -0.000242  lindep= 0.798
root 6 converged  |r|= 5.12e-06  e= 0.16477825653129974  max|de|= -5.04e-10
davidson 6 62  |r|= 0.00174  e= [0.09721686 0.09744757 0.10586366 0.11540854 0.11561034 0.12374027
 0.16477826 0.16509136 0.21163577 0.23313755]  max|de|= -4.28e-05  lindep= 0.793
root 7 converged  |r|= 1.71e-06  e= 0.16509135662149357  max|de|= -7.85e-11
davidson 7 65  |r|= 0.000705  e= [0.09721686 0.09744757 0.10586366 0.11540854 0.11561034 0.12374027
 0.16477826 0.16509136 0.21163554 0.23313346]  max|de|= -4.09e-06  lindep= 0.804
davidson 8 67  |r|= 0.000365  e= [0.09721686 0.09744757 0.10586366 0.11540854 0.11561034 0.12374027
 0.16477826 0.16509136 0.2116355  0.23313275]  max|de|= -7.1e-07  lindep= 0.817
davidson 9 69  |r|= 0.00017  e= [0.09721686 0.09744757 0.10586366 0.11540854 0.11561034 0.12374027
 0.16477826 0.16509136 0.2116355  0.23313256]  max|de|= -1.93e-07  lindep= 0.815
root 8 converged  |r|= 2.1e-05  e= 0.21163549578358867  max|de|= -2.78e-17
davidson 10 10  |r|= 0.00017  e= [0.09721686 0.09744757 0.10586366 0.11540854 0.11561034 0.12374027
 0.16477826 0.16509136 0.2116355  0.23313256]  max|de|= 5.55e-16  lindep=    1
davidson 11 11  |r|= 0.000103  e= [0.09721686 0.09744757 0.10586366 0.11540854 0.11561034 0.12374027
 0.16477826 0.16509136 0.2116355  0.23313251]  max|de|= -4.09e-08  lindep= 0.758
davidson 12 12  |r|= 4.32e-05  e= [0.09721686 0.09744757 0.10586366 0.11540854 0.11561034 0.12374027
 0.16477826 0.16509136 0.2116355  0.2331325 ]  max|de|= -1.54e-08  lindep= 0.976
davidson 13 13  |r|= 3.32e-05  e= [0.09721686 0.09744757 0.10586366 0.11540854 0.11561034 0.12374027
 0.16477826 0.16509136 0.2116355  0.2331325 ]  max|de|= -3.65e-09  lindep= 0.907
davidson 14 14  |r|= 2.01e-05  e= [0.09721686 0.09744757 0.10586366 0.11540854 0.11561034 0.12374027
 0.16477826 0.16509136 0.2116355  0.23313249]  max|de|= -1.47e-09  lindep= 0.845
root 9 converged  |r|= 9.71e-06  e= 0.23313249364632313  max|de|= -4.38e-10
converged 15 15  |r|= 2e-05  e= [0.09721686 0.09744757 0.10586366 0.11540854 0.11561034 0.12374027
 0.16477826 0.16509136 0.2116355  0.23313249]  max|de|= -4.38e-10
    CPU time for TDA    241.83 sec, wall time      8.81 sec
Excited State energies (eV)
[2.64540564 2.65168346 2.88069693 3.14042633 3.14591751 3.36714416
 4.48384475 4.49236463 5.75889517 6.34385828]
Converting <class 'pyscf.dft.rks.RKS'> to RHF


******** <class 'pyscf.tdscf.rks.TDDFT'> for <class 'pyscf.dft.rks.RKS'> ********
nstates = 10 singlet
wfnsym = None
conv_tol = 1e-09
eigh lindep = 1e-12
eigh level_shift = 0
eigh max_space = 50
eigh max_cycle = 100
chkfile = /scratch/global/yangjunjie/tmp7xszwtgx
max_memory 127949 MB (current use 627 MB)


davidson 0 10  |r|= 0.292  e= [0.09728485 0.09767507 0.10686867 0.11544321 0.11562615 0.12438059
 0.16669016 0.16703239 0.27611114 0.28623876]  max|de|= 0.286  lindep=    1
Old state -> New state
    8     ->     0 
    0     ->     1 
    1     ->     2 
    2     ->     3 
    3     ->     4 
    4     ->     5 
    5     ->     6 
    6     ->     7 
    7     ->     8 
    6     ->     9 
davidson 1 20  |r|= 0.732  e= [0.06678164 0.0972147  0.09735442 0.10397189 0.11537943 0.11560773
 0.12363652 0.14951536 0.1523425  0.16009717]  max|de|= -0.209  lindep= 0.159
Old state -> New state
    6     ->     0 
    3     ->     1 
    1     ->     2 
    2     ->     3 
    3     ->     4 
    4     ->     5 
    5     ->     6 
    6     ->     7 
    0     ->     8 
davidson 2 30  |r|= 1.47  e= [0.04445376 0.0968336  0.0972153  0.09735785 0.10550429 0.1154182
 0.11560598 0.12366102 0.13428972 0.1638786 ]  max|de|= -0.0792  lindep= 0.102
Old state -> New state
    3     ->     0 
    2     ->     1 
    3     ->     2 
    4     ->     3 
    5     ->     4 
    6     ->     5 
    7     ->     6 
    9     ->     8 
    8     ->     9 
davidson 3 40  |r|= 1.45  e= [0.06389983 0.09721526 0.09737939 0.10544756 0.11539724 0.11560935
 0.12393117 0.12736461 0.16391398 0.16417856]  max|de|= -0.0335  lindep= 0.147
Old state -> New state
    8     ->     0 
    3     ->     4 
    4     ->     5 
    5     ->     6 
    6     ->     7 
davidson 4 50  |r|= 1.27  e= [0.06501524 0.09721521 0.09736658 0.1034373  0.10544758 0.11539609
 0.11560933 0.12369303 0.16423177 0.16498293]  max|de|= -0.0989  lindep= 0.0611
Old state -> New state
    1     ->     0 
    2     ->     1 
    4     ->     2 
    2     ->     3 
    5     ->     4 
    6     ->     5 
    7     ->     6 
    9     ->     7 
davidson 5 60  |r|= 1.49  e= [0.09721522 0.09736498 0.10544488 0.10585287 0.115396   0.11560932
 0.12369686 0.16055484 0.16419453 0.16451434]  max|de|= 0.00849  lindep= 0.165
Old state -> New state
    4     ->     3 
    5     ->     4 
    6     ->     5 
    9     ->     6 
    8     ->     7 
root 0 converged  |r|= 5.32e-07  e= 0.0972152197062705  max|de|= 3.52e-10
davidson 6 70  |r|= 1.29  e= [0.09721522 0.09736536 0.10544519 0.11539597 0.11560932 0.1236963
 0.13479834 0.1443112  0.16420024 0.16453647]  max|de|= -0.0297  lindep= 0.124
Old state -> New state
    6     ->     0 
    0     ->     1 
    0     ->     2 
    1     ->     3 
    2     ->     4 
    3     ->     5 
    4     ->     6 
    5     ->     7 
root 6 converged  |r|= 1.93e-07  e= 0.11560931638090395  max|de|= 2.29e-10
davidson 7 79  |r|= 1.34  e= [0.01871458 0.09711049 0.09721522 0.09736524 0.10544516 0.11539594
 0.11560932 0.12369629 0.16419616 0.16449161]  max|de|= -0.116  lindep= 0.122
root 2 converged  |r|= 1.5e-05  e= 0.0972152214066668  max|de|= -9.71e-17
root 3 converged  |r|= 7.73e-06  e= 0.09736524324136732  max|de|= 2.91e-16
root 4 converged  |r|= 4.28e-06  e= 0.10544516313964539  max|de|= 8.33e-17
root 5 converged  |r|= 5.37e-06  e= 0.11539593580121957  max|de|= 9.71e-17
root 7 converged  |r|= 2.19e-05  e= 0.12369629258017176  max|de|= 6.94e-16
davidson 8 10  |r|= 1.34  e= [0.01871458 0.09711049 0.09721522 0.09736524 0.10544516 0.11539594
 0.11560932 0.12369629 0.16419616 0.16449161]  max|de|= 6.94e-16  lindep= 0.239
Old state -> New state
    2     ->     0 
    3     ->     1 
    4     ->     2 
    5     ->     3 
    6     ->     4 
    7     ->     5 
    8     ->     6 
    9     ->     7 
    0     ->     8 
    1     ->     9 
davidson 9 14  |r|= 0.642  e= [0.09721522 0.09736524 0.10544517 0.11539594 0.11560932 0.1236963
 0.16419581 0.16449437 0.20206543 0.37454606]  max|de|= 0.277  lindep= 0.452
Old state -> New state
    6     ->     8 
    8     ->     9 
root 0 converged  |r|= 6.09e-08  e= 0.09721521989605479  max|de|= -3.63e-12
root 2 converged  |r|= 9.45e-07  e= 0.1054451726125839  max|de|= -1.27e-10
root 5 converged  |r|= 2.33e-06  e= 0.1236962988603261  max|de|= 9.29e-10
davidson 10 20  |r|= 1.04  e= [0.09721522 0.09736522 0.10544517 0.11539593 0.11560932 0.1236963
 0.16419714 0.16449654 0.17612779 0.2168691 ]  max|de|= 0.0148  lindep= 0.237
Old state -> New state
    9     ->     6 
    6     ->     7 
    7     ->     8 
davidson 11 26  |r|= 0.983  e= [0.09721522 0.09736522 0.10544517 0.11539594 0.11560932 0.1236963
 0.15121858 0.16419585 0.16449733 0.25880871]  max|de|= -0.0657  lindep= 0.326
Old state -> New state
    7     ->     6 
    8     ->     7 
    7     ->     8 
    6     ->     9 
davidson 12 32  |r|= 1.26  e= [0.09721522 0.09736522 0.10544517 0.11539594 0.11560932 0.1236963
 0.16419614 0.16449569 0.18811308 0.23463716]  max|de|= 0.0834  lindep= 0.208
Old state -> New state
    9     ->     6 
    6     ->     7 
    7     ->     8 
root 1 converged  |r|= 3.62e-07  e= 0.09736521999027871  max|de|= -5.71e-11
davidson 13 36  |r|= 0.982  e= [0.09721522 0.09736522 0.10544518 0.11539593 0.11560932 0.1236963
 0.13089392 0.16419603 0.16449582 0.17344299]  max|de|= -0.104  lindep= 0.21
Old state -> New state
    1     ->     0 
    0     ->     1 
    1     ->     2 
    2     ->     3 
    3     ->     4 
    4     ->     5 
    5     ->     6 
    8     ->     7 
    7     ->     8 
    8     ->     9 
davidson 14 42  |r|= 1.22  e= [0.05771817 0.09721522 0.09736522 0.10544517 0.11539594 0.11560932
 0.1236963  0.16315101 0.16419593 0.16449637]  max|de|= -0.0396  lindep= 0.186
Old state -> New state
    0     ->     4 
    4     ->     5 
    5     ->     6 
    6     ->     7 
root 7 converged  |r|= 2.34e-07  e= 0.1236962981829518  max|de|= -5.06e-11
davidson 15 46  |r|= 1.42  e= [0.00874512 0.09721522 0.09736522 0.10544518 0.11381457 0.11539594
 0.11560932 0.1236963  0.16419601 0.16449569]  max|de|= 0.0561  lindep= 0.215
Old state -> New state
    8     ->     1 
    1     ->     2 
    2     ->     3 
    3     ->     4 
root 8 converged  |r|= 2.15e-06  e= 0.16419600645021298  max|de|= 9.01e-10
davidson 16 52  |r|= 1.26  e= [0.00741645 0.05842846 0.09721522 0.09736522 0.10544517 0.11539594
 0.11560932 0.1236963  0.16419601 0.16449588]  max|de|= -0.106  lindep= 0.0743
Old state -> New state
    2     ->     0 
    3     ->     1 
    4     ->     2 
    5     ->     3 
    6     ->     4 
    7     ->     5 
    8     ->     6 
    9     ->     7 
    1     ->     8 
    1     ->     9 
root 1 converged  |r|= 1.76e-07  e= 0.097365221213522  max|de|= -4.52e-10
root 2 converged  |r|= 1.67e-07  e= 0.10544517281994444  max|de|= -7.05e-10
root 3 converged  |r|= 1.53e-07  e= 0.11539593645900631  max|de|= -9.45e-11
davidson 17 55  |r|= 0.413  e= [0.09721522 0.09736522 0.10544517 0.11539594 0.11560932 0.1236963
 0.16419601 0.16449586 0.2193691  0.22864879]  max|de|= 0.17  lindep= 0.339
Old state -> New state
    2     ->     0 
    0     ->     1 
    1     ->     2 
    2     ->     3 
    3     ->     4 
    4     ->     5 
    5     ->     6 
    8     ->     7 
    6     ->     8 
    7     ->     9 
davidson 18 58  |r|= 1.29  e= [0.01222734 0.09721522 0.09736522 0.10544517 0.11539594 0.11560932
 0.1236963  0.13472754 0.16419601 0.16449587]  max|de|= -0.0932  lindep= 0.112
Old state -> New state
    9     ->     7 
root 3 converged  |r|= 9.25e-08  e= 0.10544517175995916  max|de|= 2.79e-11
davidson 19 61  |r|= 1.08  e= [0.00669691 0.09721522 0.09736522 0.10544517 0.11539594 0.11560932
 0.1236963  0.15192431 0.16419601 0.16449593]  max|de|= -0.0126  lindep= 0.0466
Old state -> New state
    8     ->     7 
    9     ->     8 
    7     ->     9 
davidson 20 64  |r|= 1.32  e= [0.06927743 0.09721522 0.09736522 0.10544517 0.11539594 0.11560932
 0.1236963  0.164196   0.16449587 0.20194675]  max|de|= 0.0626  lindep= 0.0939
davidson 21 67  |r|= 1.26  e= [0.0493263  0.09721522 0.09736522 0.10544517 0.11539594 0.11560932
 0.1236963  0.16419601 0.16449588 0.20918985]  max|de|= -0.02  lindep= 0.0493
Old state -> New state
    0     ->     1 
    1     ->     2 
    2     ->     3 
    3     ->     4 
    4     ->     5 
    5     ->     6 
    6     ->     7 
    7     ->     8 
    8     ->     9 
root 8 converged  |r|= 4.75e-07  e= 0.1641960081443011  max|de|= -3.14e-10
root 9 converged  |r|= 2.39e-07  e= 0.16449588120097813  max|de|= 6.54e-11
davidson 22 69  |r|= 1.33  e= [0.00982399 0.06406766 0.09721522 0.09736522 0.10544517 0.11539594
 0.11560932 0.1236963  0.16419601 0.16449588]  max|de|= -0.0395  lindep= 0.066
Old state -> New state
    2     ->     1 
    3     ->     2 
    4     ->     3 
davidson 23 71  |r|=  1.2  e= [0.00966826 0.09721522 0.09736522 0.10544517 0.11327367 0.11539594
 0.11560932 0.1236963  0.16419601 0.16449588]  max|de|= 0.00783  lindep= 0.00697
Old state -> New state
    3     ->     1 
    1     ->     2 
    2     ->     3 
    3     ->     4 
davidson 24 73  |r|=  1.2  e= [0.00621929 0.09445744 0.09721522 0.09736522 0.10544517 0.11539594
 0.11560932 0.1236963  0.16419601 0.16449588]  max|de|= -0.011  lindep= 0.04
Old state -> New state
    2     ->     1 
    3     ->     2 
    4     ->     3 
    5     ->     4 
    6     ->     5 
    7     ->     6 
    8     ->     7 
    9     ->     8 
    1     ->     9 
davidson 25 75  |r|= 1.09  e= [0.07916414 0.09721522 0.09736522 0.10544517 0.11539594 0.11560932
 0.1236963  0.16419601 0.16449588 0.20835284]  max|de|= 0.114  lindep= 0.0618
root 8 converged  |r|= 9.71e-08  e= 0.16449588171608528  max|de|= -7.81e-11
davidson 26 77  |r|= 0.947  e= [0.02524565 0.09721522 0.09736522 0.10544517 0.11539594 0.11560932
 0.1236963  0.16419601 0.16449588 0.20834338]  max|de|= -0.0539  lindep= 0.0988
root 7 converged  |r|= 2.76e-07  e= 0.1641960100406659  max|de|= 1.79e-13
davidson 27 10  |r|= 0.947  e= [0.02524565 0.09721522 0.09736522 0.10544517 0.11539594 0.11560932
 0.1236963  0.16419601 0.16449588 0.20834338]  max|de|= -7.65e-11  lindep= 0.334
Old state -> New state
    0     ->     1 
    1     ->     2 
    2     ->     3 
    3     ->     4 
    4     ->     5 
    5     ->     6 
    6     ->     7 
    7     ->     8 
    8     ->     9 
davidson 28 12  |r|= 1.73  e= [0.00262165 0.07395182 0.09721522 0.09736522 0.10544517 0.11539594
 0.11560932 0.1236963  0.16419601 0.16449588]  max|de|= 0.0487  lindep= 0.245
Old state -> New state
    2     ->     1 
    3     ->     2 
    4     ->     3 
    5     ->     4 
    6     ->     5 
    7     ->     6 
    8     ->     7 
    9     ->     8 
    1     ->     9 
davidson 29 14  |r|=  1.1  e= [0.0244264  0.09721522 0.09736522 0.10544517 0.11539594 0.11560932
 0.1236963  0.16419601 0.16449588 0.20832166]  max|de|= 0.134  lindep= 0.172
Old state -> New state
    2     ->     7 
    7     ->     8 
    8     ->     9 
davidson 30 16  |r|= 1.22  e= [0.02190191 0.09721522 0.09736522 0.10544517 0.11539594 0.11560932
 0.1236963  0.12692946 0.16419601 0.16449588]  max|de|= 0.0296  lindep= 0.162
davidson 31 18  |r|= 1.25  e= [0.01742161 0.09721522 0.09736522 0.10544517 0.11539594 0.11560932
 0.1236963  0.12536774 0.16419601 0.16449588]  max|de|= -0.00448  lindep= 0.147
Old state -> New state
    7     ->     1 
    1     ->     2 
    2     ->     3 
    3     ->     4 
    4     ->     5 
    5     ->     6 
    6     ->     7 
davidson 32 20  |r|= 1.42  e= [0.0149413  0.05347323 0.09721522 0.09736522 0.10544517 0.11539594
 0.11560932 0.1236963  0.16419601 0.16449588]  max|de|= -0.0719  lindep= 0.126
Old state -> New state
    2     ->     1 
    3     ->     2 
    4     ->     3 
    5     ->     4 
    6     ->     5 
    7     ->     6 
    8     ->     7 
    9     ->     8 
    1     ->     9 
davidson 33 22  |r|= 1.06  e= [0.0258658  0.09721522 0.09736522 0.10544517 0.11539594 0.11560932
 0.1236963  0.16419601 0.16449588 0.20831154]  max|de|= 0.155  lindep= 0.159
Old state -> New state
    9     ->     7 
    7     ->     8 
    8     ->     9 
davidson 34 24  |r|= 1.32  e= [0.02479651 0.09721522 0.09736522 0.10544517 0.11539594 0.11560932
 0.1236963  0.13965635 0.16419601 0.16449588]  max|de|= -0.0687  lindep= 0.0829
Old state -> New state
    1     ->     0 
    2     ->     1 
    3     ->     2 
    4     ->     3 
    5     ->     4 
    6     ->     5 
    0     ->     6 
    8     ->     7 
    9     ->     8 
    7     ->     9 
davidson 35 26  |r|= 1.07  e= [0.09721522 0.09736522 0.10544517 0.11539594 0.11560932 0.1236963
 0.12796267 0.16419601 0.16449588 0.20825086]  max|de|= 0.103  lindep= 0.21
Old state -> New state
    6     ->     5 
    5     ->     6 
davidson 36 28  |r|= 0.927  e= [0.09721522 0.09736522 0.10544517 0.11539594 0.11560932 0.11618989
 0.1236963  0.16419601 0.16449588 0.20849276]  max|de|= -0.0118  lindep= 0.133
Old state -> New state
    1     ->     0 
    0     ->     1 
    1     ->     2 
    2     ->     3 
    3     ->     4 
    4     ->     5 
davidson 37 30  |r|= 0.759  e= [0.09435288 0.09721522 0.09736522 0.10544517 0.11539594 0.11560932
 0.1236963  0.16419601 0.16449588 0.20821086]  max|de|= -0.00301  lindep= 0.193
Old state -> New state
    1     ->     0 
    2     ->     1 
    3     ->     2 
    4     ->     3 
    5     ->     4 
    6     ->     5 
    7     ->     6 
    8     ->     7 
    9     ->     8 
root 3 converged  |r|= 5.93e-08  e= 0.11539593651754271  max|de|= 1.62e-10
davidson 38 32  |r|= 0.702  e= [0.09721522 0.09736522 0.10544517 0.11539594 0.11560932 0.1236963
 0.16419601 0.16449588 0.20852725 0.2458489 ]  max|de|= 0.0376  lindep= 0.271
root 1 converged  |r|= 1.09e-07  e= 0.09736522122789838  max|de|= 5.26e-11
davidson 39 34  |r|= 0.215  e= [0.09721522 0.09736522 0.10544517 0.11539594 0.11560932 0.1236963
 0.16419601 0.16449588 0.20836909 0.2657454 ]  max|de|= 0.0199  lindep= 0.313
Old state -> New state
    8     ->     6 
    6     ->     7 
    7     ->     8 
    8     ->     9 
davidson 40 36  |r|= 1.04  e= [0.09721522 0.09736522 0.10544517 0.11539594 0.11560932 0.1236963
 0.12821962 0.16419601 0.16449588 0.20832747]  max|de|= -0.0801  lindep= 0.217
Old state -> New state
    6     ->     0 
    0     ->     1 
    1     ->     2 
    2     ->     3 
    3     ->     4 
    4     ->     5 
    5     ->     6 
    6     ->     7 
    7     ->     8 
    8     ->     9 
davidson 41 38  |r|= 1.31  e= [0.09006491 0.09721522 0.09736522 0.10544517 0.11539594 0.11560932
 0.1236963  0.13888777 0.16419601 0.16449588]  max|de|= -0.0382  lindep= 0.156
Old state -> New state
    3     ->     0 
davidson 42 40  |r|= 1.25  e= [0.07461726 0.09721522 0.09736522 0.10544517 0.11539594 0.11560932
 0.1236963  0.12640961 0.16419601 0.16449588]  max|de|= -0.0308  lindep= 0.24
Old state -> New state
    8     ->     7 
    9     ->     8 
    7     ->     9 
root 7 converged  |r|= 2.61e-07  e= 0.16419600980523427  max|de|= -4.74e-10
davidson 43 42  |r|=  1.1  e= [0.01965949 0.09721522 0.09736522 0.10544517 0.11539594 0.11560932
 0.1236963  0.16419601 0.16449588 0.20845317]  max|de|= 0.082  lindep= 0.118
Old state -> New state
    0     ->     1 
    1     ->     2 
    2     ->     3 
    3     ->     4 
    4     ->     5 
    5     ->     6 
    6     ->     7 
    7     ->     8 
    8     ->     9 
davidson 44 44  |r|= 1.43  e= [0.02195537 0.02595996 0.09721522 0.09736522 0.10544517 0.11539594
 0.11560932 0.1236963  0.16419601 0.16449588]  max|de|= 0.0063  lindep= 0.174
Old state -> New state
    2     ->     0 
    3     ->     1 
    4     ->     2 
    4     ->     3 
    5     ->     4 
    6     ->     5 
    7     ->     6 
    8     ->     7 
    9     ->     8 
    1     ->     9 
davidson 45 46  |r|= 0.377  e= [0.09721522 0.09736522 0.10544517 0.10800036 0.11539594 0.11560932
 0.1236963  0.16419601 0.16449588 0.20836815]  max|de|= 0.182  lindep= 0.138
davidson 46 48  |r|= 0.901  e= [0.09721522 0.09736522 0.10544518 0.10693806 0.11539594 0.11560932
 0.1236963  0.16419601 0.16449588 0.18362657]  max|de|= -0.0247  lindep= 0.0164
Old state -> New state
    3     ->     0 
    0     ->     1 
    1     ->     2 
    2     ->     3 
    3     ->     9 
davidson 47 50  |r|= 1.23  e= [0.06455086 0.09721522 0.09736522 0.10544517 0.11539594 0.11560932
 0.1236963  0.16419601 0.16449588 0.18602476]  max|de|= 0.0791  lindep= 0.112
Old state -> New state
    8     ->     9 
root 3 converged  |r|= 4.03e-08  e= 0.1054451717727917  max|de|= -1.06e-10
davidson 48 52  |r|= 0.954  e= [0.022515   0.09721522 0.09736522 0.10544517 0.11539594 0.11560932
 0.1236963  0.16419601 0.16449588 0.19755613]  max|de|= -0.042  lindep= 0.102
Old state -> New state
    0     ->     1 
    1     ->     2 
    2     ->     3 
    3     ->     4 
    4     ->     5 
    5     ->     6 
    6     ->     7 
    7     ->     8 
    8     ->     9 
root 8 converged  |r|= 2.31e-07  e= 0.1641960099399249  max|de|= 6.31e-10
davidson 49 54  |r|= 1.34  e= [0.01433544 0.08951777 0.09721522 0.09736522 0.10544517 0.11539594
 0.11560932 0.1236963  0.16419601 0.16449588]  max|de|= 0.067  lindep= 0.0663
Old state -> New state
    0     ->     1 
davidson 50 56  |r|= 1.18  e= [0.01319282 0.06300749 0.09721522 0.09736522 0.10544517 0.11539594
 0.11560932 0.1236963  0.16419601 0.16449588]  max|de|= 0.0487  lindep= 0.0188
Old state -> New state
    2     ->     1 
    3     ->     2 
    4     ->     3 
    5     ->     4 
    6     ->     5 
    7     ->     6 
    8     ->     7 
    9     ->     8 
    0     ->     9 
davidson 51 58  |r|= 0.943  e= [0.04837164 0.09721522 0.09736522 0.10544517 0.11539594 0.11560932
 0.1236963  0.16419601 0.16449588 0.2083668 ]  max|de|= 0.195  lindep= 0.116
Old state -> New state
    3     ->     4 
    4     ->     5 
    5     ->     6 
    6     ->     7 
    7     ->     8 
    8     ->     9 
davidson 52 60  |r|= 1.08  e= [0.04399185 0.09721522 0.09736522 0.09854885 0.10544518 0.11539594
 0.11560932 0.1236963  0.16419601 0.16449588]  max|de|= -0.0069  lindep= 0.0269
Old state -> New state
    4     ->     3 
    5     ->     4 
    6     ->     5 
    7     ->     6 
    0     ->     7 
    8     ->     9 
davidson 53 64  |r|= 1.13  e= [0.00116209 0.09721522 0.09736522 0.10544517 0.11539594 0.11560932
 0.1236963  0.13979907 0.15581651 0.16419602]  max|de|= 0.0958  lindep= 0.0871
Old state -> New state
    9     ->     0 
    9     ->     7 
    7     ->     8 
    7     ->     9 
davidson 54 69  |r|=  1.2  e= [0.01905795 0.09721522 0.09736522 0.10544515 0.11539593 0.11560932
 0.1236963  0.16419594 0.16449609 0.20836979]  max|de|= -0.145  lindep= 0.129
Old state -> New state
    3     ->     4 
    4     ->     5 
    5     ->     6 
    6     ->     7 
    7     ->     8 
    8     ->     9 
davidson 55 76  |r|= 1.28  e= [0.06187039 0.09721522 0.09736523 0.10242685 0.1054455  0.11539593
 0.11560932 0.12369626 0.16419616 0.16449686]  max|de|= 0.0428  lindep= 0.125
Old state -> New state
    3     ->     0 
    4     ->     3 
    5     ->     4 
    6     ->     5 
    7     ->     6 
    8     ->     7 
    9     ->     8 
    0     ->     9 
davidson 56 84  |r|=  1.1  e= [0.02386471 0.09721522 0.09736525 0.10544529 0.1153959  0.11560932
 0.12369648 0.16419344 0.16450099 0.20367003]  max|de|= 0.142  lindep= 0.118
davidson 57 10  |r|=  1.1  e= [0.02386352 0.09721522 0.09736524 0.10544539 0.11539592 0.11560932
 0.12369645 0.16419376 0.16450134 0.20361322]  max|de|= -5.68e-05  lindep= 0.276
Old state -> New state
    0     ->     1 
    1     ->     2 
    2     ->     3 
    3     ->     4 
    4     ->     5 
    5     ->     6 
    6     ->     7 
    7     ->     8 
    8     ->     9 
davidson 58 18  |r|= 1.48  e= [0.0464303  0.07850026 0.09721522 0.09736521 0.10544465 0.11539585
 0.11560932 0.12369621 0.16419581 0.1645023 ]  max|de|= 0.0546  lindep= 0.255
Old state -> New state
    2     ->     1 
    3     ->     2 
    4     ->     3 
davidson 59 26  |r|= 1.16  e= [0.02170759 0.09721522 0.09736531 0.10544851 0.10657996 0.11539619
 0.11560932 0.12369634 0.16419376 0.16448721]  max|de|= -0.0247  lindep= 0.179
Old state -> New state
    0     ->     1 
    1     ->     2 
    2     ->     3 
    3     ->     4 
davidson 60 34  |r|= 1.39  e= [0.01296439 0.06444148 0.09721522 0.09736522 0.10544528 0.11539591
 0.11560932 0.12369631 0.16419545 0.16449756]  max|de|= 0.0427  lindep= 0.169
Old state -> New state
    4     ->     1 
    8     ->     9 
davidson 61 42  |r|= 1.12  e= [0.02368469 0.08899138 0.09721522 0.09736522 0.10544521 0.11539593
 0.11560932 0.12369627 0.13982526 0.16419649]  max|de|= -0.0244  lindep= 0.108
Old state -> New state
    0     ->     1 
    9     ->     8 
davidson 62 50  |r|= 1.29  e= [0.00350537 0.07259414 0.09721522 0.09736524 0.10544504 0.1153959
 0.11560932 0.12369626 0.14067929 0.15950377]  max|de|= 0.0489  lindep= 0.149
Old state -> New state
    3     ->     1 
    7     ->     8 
davidson 63 58  |r|= 1.31  e= [0.01262173 0.0862982  0.09721522 0.09736526 0.10544508 0.1153959
 0.11560932 0.12369629 0.13406802 0.16419602]  max|de|= -0.0111  lindep= 0.0758
Old state -> New state
    3     ->     1 
    4     ->     5 
    5     ->     6 
    6     ->     7 
    7     ->     8 
davidson 64 66  |r|= 0.995  e= [0.00243623 0.09169193 0.09721522 0.09736522 0.10544529 0.1116052
 0.11539593 0.11560932 0.1236963  0.164196  ]  max|de|= -0.0102  lindep= 0.0539
Old state -> New state
    0     ->     1 
    6     ->     5 
    7     ->     6 
    8     ->     7 
    9     ->     8 
    5     ->     9 
root 5 converged  |r|= 1.37e-05  e= 0.11539593389238215  max|de|= -2.3e-10
davidson 65 74  |r|= 1.33  e= [0.0049244  0.03280741 0.09721522 0.09736523 0.10544511 0.11539593
 0.11560932 0.1236963  0.16419604 0.16449561]  max|de|= 0.0529  lindep= 0.0521
Old state -> New state
    0     ->     1 
    1     ->     2 
    2     ->     3 
    3     ->     4 
    4     ->     5 
    5     ->     6 
    6     ->     7 
    7     ->     8 
    8     ->     9 
root 4 converged  |r|= 2.57e-06  e= 0.09736522418808499  max|de|= -9.1e-10
root 8 converged  |r|= 8.25e-06  e= 0.12369629951236101  max|de|= -1.65e-10
davidson 66 81  |r|= 1.34  e= [0.00208976 0.02961653 0.06133544 0.09721522 0.09736522 0.10544511
 0.11539594 0.11560932 0.1236963  0.16419606]  max|de|= 0.0285  lindep= 0.0762
root 5 converged  |r|= 9.7e-06  e= 0.10544510855840392  max|de|= -1.73e-11
root 6 converged  |r|= 1.37e-05  e= 0.11539593644425278  max|de|= 1.38e-14
root 9 converged  |r|= 2.1e-05  e= 0.16419606445758422  max|de|= -4.16e-13
davidson 67 10  |r|= 1.34  e= [0.00208976 0.02961653 0.06133544 0.09721522 0.09736522 0.10544511
 0.11539594 0.11560932 0.1236963  0.16419606]  max|de|= 1.45e-10  lindep= 0.266
Old state -> New state
    3     ->     2 
    4     ->     3 
    5     ->     4 
    6     ->     5 
    7     ->     6 
    8     ->     7 
    9     ->     8 
    2     ->     9 
davidson 68 13  |r|= 1.46  e= [0.01973098 0.07273167 0.09721522 0.09736522 0.10544515 0.11539594
 0.11560932 0.12369629 0.16419602 0.22614713]  max|de|= 0.165  lindep= 0.236
Old state -> New state
    0     ->     1 
    1     ->     9 
root 7 converged  |r|= 1.02e-05  e= 0.12369629496264235  max|de|= 3.88e-10
davidson 69 21  |r|= 1.18  e= [0.01511694 0.04926332 0.09721522 0.09736522 0.10544513 0.11539594
 0.11560932 0.12369629 0.16419599 0.19712069]  max|de|= 0.124  lindep= 0.163
Old state -> New state
    0     ->     1 
    8     ->     9 
davidson 70 28  |r|= 1.34  e= [0.01720263 0.07044184 0.09721522 0.09736521 0.10544519 0.11539595
 0.11560932 0.12369628 0.16419605 0.20744448]  max|de|= 0.0553  lindep= 0.208
Old state -> New state
    0     ->     1 
    4     ->     5 
    5     ->     6 
    6     ->     7 
    7     ->     8 
    8     ->     9 
davidson 71 36  |r|= 1.36  e= [0.02221537 0.02734752 0.09721522 0.09736522 0.10544502 0.11033862
 0.11539595 0.11560932 0.1236963  0.15621166]  max|de|= 0.0101  lindep= 0.0872
Old state -> New state
    1     ->     0 
    6     ->     5 
    7     ->     6 
    8     ->     7 
    9     ->     8 
root 7 converged  |r|= 2.12e-06  e= 0.1236962987581493  max|de|= 3.33e-10
davidson 72 44  |r|=  1.3  e= [0.01547068 0.0823917  0.09721522 0.09736522 0.10544517 0.11539594
 0.11560932 0.1236963  0.13675731 0.16419601]  max|de|= 0.055  lindep= 0.144
Old state -> New state
    2     ->     0 
    3     ->     1 
    4     ->     2 
    5     ->     3 
    6     ->     4 
    7     ->     5 
    9     ->     6 
    9     ->     7 
    8     ->     9 
root 2 converged  |r|= 9.71e-07  e= 0.10544516973081743  max|de|= -7.62e-10
root 3 converged  |r|= 1.93e-06  e= 0.11539593586145447  max|de|= 1.14e-10
davidson 73 50  |r|= 0.717  e= [0.09721522 0.09736522 0.10544517 0.11539594 0.11560932 0.1236963
 0.16052703 0.16419558 0.21225825 0.22028198]  max|de|= 0.0835  lindep= 0.21
root 1 converged  |r|= 1.28e-07  e= 0.09736522131492746  max|de|= 3e-10
davidson 74 55  |r|= 1.27  e= [0.09721522 0.09736522 0.10544517 0.11539594 0.11560932 0.1236963
 0.12661451 0.16419599 0.17218799 0.243289  ]  max|de|= -0.0401  lindep= 0.198
Old state -> New state
    6     ->     0 
    0     ->     1 
    1     ->     2 
    2     ->     3 
    3     ->     4 
    4     ->     5 
    5     ->     7 
    7     ->     8 
    7     ->     9 
root 3 converged  |r|= 4.74e-07  e= 0.10544517125192197  max|de|= -3.14e-10
root 4 converged  |r|= 2.34e-06  e= 0.11539593751125124  max|de|= -2.84e-10
davidson 75 61  |r|= 1.16  e= [0.01754347 0.09721522 0.09736522 0.10544517 0.11539594 0.11560932
 0.12065913 0.1236963  0.16419657 0.16597925]  max|de|= -0.109  lindep= 0.138
Old state -> New state
    0     ->     1 
    1     ->     2 
    2     ->     3 
    3     ->     4 
    4     ->     5 
    5     ->     6 
    6     ->     8 
    8     ->     9 
davidson 76 66  |r|= 1.35  e= [0.02013022 0.0797218  0.09721522 0.09736522 0.10544517 0.11539594
 0.11560932 0.1236963  0.14082745 0.16419602]  max|de|= 0.0622  lindep= 0.088
Old state -> New state
    2     ->     0 
    3     ->     1 
    4     ->     2 
    5     ->     3 
    6     ->     4 
    7     ->     5 
    0     ->     6 
    9     ->     7 
    9     ->     8 
    0     ->     9 
root 3 converged  |r|= 2.94e-08  e= 0.11539593653067581  max|de|= 1.22e-10
root 5 converged  |r|= 2.66e-08  e= 0.1236962982692417  max|de|= -2.25e-10
davidson 77 70  |r|= 0.887  e= [0.09721522 0.09736522 0.10544517 0.11539594 0.11560932 0.1236963
 0.14703459 0.164196   0.16755684 0.20769572]  max|de|= 0.188  lindep= 0.17
Old state -> New state
    7     ->     6 
    8     ->     7 
    9     ->     8 
davidson 78 74  |r|= 0.262  e= [0.09721522 0.09736522 0.10544517 0.11539594 0.11560932 0.1236963
 0.164196   0.16448542 0.21013708 0.22699608]  max|de|= 0.0193  lindep= 0.575
Old state -> New state
    8     ->     0 
    0     ->     1 
    1     ->     2 
    2     ->     3 
    3     ->     4 
    4     ->     5 
    4     ->     6 
    5     ->     7 
    6     ->     8 
    7     ->     9 
davidson 79 78  |r|=  1.2  e= [0.02412918 0.09721522 0.09736522 0.10544517 0.11539594 0.11560932
 0.11598196 0.1236963  0.16419601 0.16449872]  max|de|= -0.186  lindep= 0.11
root 8 converged  |r|= 8.85e-07  e= 0.16419600914525645  max|de|= -3.05e-15
davidson 80 10  |r|=  1.2  e= [0.02412918 0.09721522 0.09736522 0.10544517 0.11539594 0.11560932
 0.11598196 0.1236963  0.16419601 0.16449872]  max|de|= -1.09e-12  lindep= 0.37
Old state -> New state
    7     ->     6 
    8     ->     7 
    9     ->     8 
    6     ->     9 
davidson 81 13  |r|= 1.62  e= [0.08633393 0.09721522 0.09736522 0.10544517 0.11539594 0.11560932
 0.1236963  0.16419601 0.16450355 0.2661958 ]  max|de|= 0.15  lindep= 0.338
davidson 82 16  |r|= 1.51  e= [0.03642753 0.09721522 0.09736522 0.10544517 0.11539594 0.11560932
 0.1236963  0.16419601 0.16449647 0.27952788]  max|de|= -0.0499  lindep= 0.153
root 7 converged  |r|= 3.93e-07  e= 0.16419600802202194  max|de|= -6.63e-10
davidson 83 19  |r|= 1.47  e= [0.04860415 0.09721522 0.09736522 0.10544517 0.11539594 0.11560932
 0.1236963  0.16419601 0.16449961 0.32214288]  max|de|= 0.0426  lindep= 0.138
Old state -> New state
    1     ->     0 
    2     ->     1 
    3     ->     2 
    4     ->     3 
    5     ->     4 
    6     ->     5 
    7     ->     6 
    8     ->     7 
    9     ->     8 
davidson 84 22  |r|= 1.02  e= [0.09721522 0.09736522 0.10544517 0.11539594 0.11560932 0.1236963
 0.16419601 0.16449888 0.2132312  0.30748371]  max|de|= -0.109  lindep= 0.353
Old state -> New state
    8     ->     0 
    0     ->     2 
    1     ->     3 
    2     ->     4 
    3     ->     5 
    4     ->     6 
    5     ->     7 
    6     ->     8 
    7     ->     9 
root 8 converged  |r|= 1.88e-07  e= 0.1641960103858791  max|de|= 7.3e-10
davidson 85 25  |r|= 1.21  e= [0.01617644 0.0952739  0.09721522 0.09736522 0.10544517 0.11539594
 0.11560932 0.1236963  0.16419601 0.16449537]  max|de|= -0.197  lindep= 0.203
Old state -> New state
    2     ->     0 
    3     ->     1 
    4     ->     2 
    5     ->     3 
    6     ->     4 
    7     ->     5 
    0     ->     6 
    8     ->     7 
    9     ->     8 
    1     ->     9 
davidson 86 28  |r|= 0.974  e= [0.09721522 0.09736522 0.10544517 0.11539594 0.11560932 0.1236963
 0.13604081 0.16419601 0.16449562 0.23512622]  max|de|= 0.14  lindep= 0.308
Old state -> New state
    6     ->     0 
    0     ->     1 
    1     ->     2 
    2     ->     3 
    3     ->     4 
    4     ->     5 
    5     ->     7 
    7     ->     8 
    8     ->     9 
davidson 87 31  |r|= 1.17  e= [0.07191858 0.09721522 0.09736522 0.10544517 0.11539594 0.11560932
 0.12310448 0.1236963  0.16419601 0.16449516]  max|de|= -0.0641  lindep= 0.172
Old state -> New state
    2     ->     1 
    1     ->     2 
    2     ->     3 
    3     ->     4 
    4     ->     5 
    5     ->     6 
davidson 88 34  |r|= 1.18  e= [0.02069906 0.09181067 0.09721522 0.09736522 0.10544517 0.11539594
 0.11560932 0.1236963  0.16419601 0.16449635]  max|de|= -0.0512  lindep= 0.111
Old state -> New state
    2     ->     0 
    3     ->     1 
    4     ->     2 
    5     ->     3 
    6     ->     4 
    7     ->     5 
    8     ->     6 
    8     ->     7 
    9     ->     8 
    1     ->     9 
davidson 89 37  |r|= 1.23  e= [0.09721522 0.09736522 0.10544517 0.11539594 0.11560932 0.1236963
 0.15559192 0.16419601 0.16449569 0.20801605]  max|de|= 0.116  lindep= 0.148
Old state -> New state
    1     ->     0 
    0     ->     1 
    1     ->     2 
    2     ->     3 
    3     ->     4 
    4     ->     5 
    5     ->     6 
    7     ->     9 
davidson 90 40  |r|= 0.877  e= [0.09049176 0.09721522 0.09736522 0.10544517 0.11539594 0.11560932
 0.1236963  0.16419601 0.16449569 0.18578401]  max|de|= 0.0216  lindep= 0.13
Old state -> New state
    1     ->     0 
    2     ->     1 
    3     ->     2 
    4     ->     3 
    5     ->     4 
    6     ->     5 
    7     ->     6 
    8     ->     7 
    7     ->     8 
    0     ->     9 
davidson 91 43  |r|= 0.476  e= [0.09721522 0.09736522 0.10544517 0.11539594 0.11560932 0.1236963
 0.16419601 0.16449594 0.20457185 0.22603026]  max|de|= 0.136  lindep= 0.273
Old state -> New state
    8     ->     9 
davidson 92 46  |r|= 0.446  e= [0.09721522 0.09736522 0.10544517 0.11539594 0.11560932 0.1236963
 0.16419601 0.16449587 0.20661105 0.22347047]  max|de|= 0.0189  lindep= 0.433
Old state -> New state
    2     ->     0 
    0     ->     1 
    1     ->     2 
    2     ->     3 
    3     ->     4 
    4     ->     5 
    5     ->     6 
    6     ->     7 
    7     ->     8 
    8     ->     9 
davidson 93 49  |r|= 1.23  e= [0.03157514 0.09721522 0.09736522 0.10544517 0.11539594 0.11560932
 0.1236963  0.16419601 0.16449588 0.20808109]  max|de|= -0.0739  lindep= 0.132
davidson 94 52  |r|= 0.913  e= [0.01847411 0.09721522 0.09736522 0.10544517 0.11539594 0.11560932
 0.1236963  0.16419601 0.16449588 0.20825572]  max|de|= -0.0131  lindep= 0.104
Old state -> New state
    1     ->     0 
    2     ->     1 
    3     ->     2 
davidson 95 55  |r|= 0.209  e= [0.09721522 0.09736522 0.10544517 0.10564489 0.11539594 0.11560932
 0.1236963  0.16419601 0.16449589 0.20822126]  max|de|= 0.0002  lindep= 0.144
Old state -> New state
    2     ->     0 
    0     ->     1 
    1     ->     2 
    2     ->     3 
    6     ->     4 
    4     ->     5 
    5     ->     6 
    6     ->     7 
    7     ->     8 
    8     ->     9 
davidson 96 58  |r|= 1.25  e= [0.08507037 0.09721522 0.09736522 0.10544517 0.11159632 0.11539594
 0.11560932 0.1236963  0.16419601 0.16449589]  max|de|= -0.0204  lindep= 0.068
Old state -> New state
    0     ->     1 
    1     ->     2 
    2     ->     3 
    3     ->     4 
davidson 97 61  |r|= 1.23  e= [0.03578474 0.08844907 0.09721522 0.09736522 0.10544517 0.11539594
 0.11560932 0.1236963  0.16419601 0.16449589]  max|de|= -0.0493  lindep= 0.093
Old state -> New state
    8     ->     1 
root 9 converged  |r|= 7.34e-07  e= 0.1644958864700834  max|de|= -5.06e-10
davidson 98 63  |r|= 1.38  e= [0.03578312 0.06242251 0.09721522 0.09736522 0.10544517 0.11539594
 0.11560932 0.1236963  0.16419601 0.16449589]  max|de|= -0.102  lindep= 0.0263
Old state -> New state
    2     ->     1 
    3     ->     2 
    4     ->     3 
    5     ->     4 
    6     ->     5 
    7     ->     6 
    8     ->     7 
    9     ->     8 
    0     ->     9 
davidson 99 65  |r|= 1.22  e= [0.03967187 0.09721522 0.09736522 0.10544517 0.11539594 0.11560932
 0.1236963  0.16419601 0.16449589 0.20831321]  max|de|= 0.173  lindep= 0.0446
    CPU time for TDDFT   1324.90 sec, wall time     47.59 sec
TD-SCF states [0, 9] not converged.
Excited State energies (eV)
[1.07952669 2.64536088 2.64944262 2.86930927 3.14008337 3.14588974
 3.36594772 4.46800103 4.47616106 5.66849112]
