 
:: initializing oneAPI environment ...
   slurm_script: BASH_VERSION = 4.2.46(1)-release
   args: Using "$@" for setvars.sh arguments: --force
:: advisor -- latest
:: ccl -- latest
:: clck -- latest
:: compiler -- latest
:: dal -- latest
:: debugger -- latest
:: dev-utilities -- latest
:: dnnl -- latest
:: dpcpp-ct -- latest
:: dpl -- latest
:: inspector -- latest
:: intelpython -- latest
:: ipp -- latest
:: ippcp -- latest
:: ipp -- latest
:: itac -- latest
:: mkl -- latest
:: mpi -- latest
:: tbb -- latest
:: vpl -- latest
:: vtune -- latest
:: oneAPI environment initialized ::
 
SLURM_CPUS_PER_TASK = 28
SLURM_MEM_PER_NODE = 256000
#INFO: **** input file is /home/yangjunjie/work/py-ch3-cl/work/step_6/main.py ****
import sys
import pyscf
from pyscf import tdscf

def main(xyz_file, basis="631g*", xc="b3lyp", output="ene.out"):
    xyz = None

    with open(xyz_file, "r") as xyz:
        xyz = xyz.readlines()[2:]
        xyz = "".join(xyz)

    mol = pyscf.gto.Mole()
    mol.atom = xyz
    mol.basis = basis
    mol.verbose = 5
    mol.build()

    if xc is not None and xc != "hf":
        mf = pyscf.scf.RKS(mol)
        mf.xc = xc
        mf.kernel()
    else:
        mf = pyscf.scf.RHF(mol)
        mf.kernel()

    ene_mf = mf.e_tot

    tda = pyscf.tdscf.TDA(mf)
    tda.nstates = 10
    tda.kernel()
    ene_tda = tda.e[:5]
    dip_tda = tda.transition_dipole()[:5]

    rpa = pyscf.tdscf.RPA(mf)
    rpa.nstates = 10
    rpa.kernel()
    ene_rpa = rpa.e[:5]
    dip_rpa = rpa.transition_dipole()[:5]

    with open(output, "w") as f:
        f.write(f"RKS energy: {ene_mf: 12.8f}\n")
        f.write("TDA results:\n")
        for i, (ene, dip) in enumerate(zip(ene_tda, dip_tda)):
            f.write(f" {i:2d} {ene: 12.8f} {dip[0]: 12.8f} {dip[1]: 12.8f} {dip[2]: 12.8f}\n")
        
        f.write("\nRPA results:\n")
        for i, (ene, dip) in enumerate(zip(ene_rpa, dip_rpa)):
            f.write(f" {i:2d} {ene: 12.8f} {dip[0]: 12.8f} {dip[1]: 12.8f} {dip[2]: 12.8f}\n")

if __name__ == "__main__":
    xyz = sys.argv[1]
    main(xyz, basis="631g*", xc="b3lyp", output="out.log")
#INFO: ******************** input file end ********************


System: uname_result(system='Linux', node='pauling001', release='3.10.0-327.36.3.el7.x86_64', version='#1 SMP Thu Oct 20 04:56:07 EDT 2016', machine='x86_64')  Threads 28
Python 3.9.7 (default, Oct 27 2021, 01:23:21) 
[GCC 9.3.0]
numpy 1.21.2  scipy 1.6.2
Date: Tue Sep 27 23:12:35 2022
PySCF version 2.0.1
PySCF path  /home/yangjunjie/packages/pyscf/pyscf-main
GIT ORIG_HEAD 14b880cdc4bf7bb64f3989a147c0b04622efc498
GIT HEAD (branch master) 9d5b5bd309d1cc55fbd1a0ec76e26b5b0c7f76af

[ENV] PYSCF_MAX_MEMORY 256000
[ENV] PYSCF_TMPDIR /scratch/global/yangjunjie/
[CONFIG] conf_file /home/yangjunjie/.pyscf_conf.py
[INPUT] verbose = 5
[INPUT] max_memory = 256000 
[INPUT] num. atoms = 16
[INPUT] num. electrons = 68
[INPUT] charge = 0
[INPUT] spin (= nelec alpha-beta = 2S) = 0
[INPUT] symmetry False subgroup None
[INPUT] Mole.unit = angstrom
[INPUT]  1 C      0.000000010000   1.168959360000   0.988087040000 AA    0.000000018897   2.209013041147   1.867213892832 Bohr
[INPUT]  2 C      0.000000000000   1.191896330000   2.381834460000 AA    0.000000000000   2.252357632574   4.501014803451 Bohr
[INPUT]  3 C     -0.000000010000  -0.011731610000   3.077642290000 AA   -0.000000018897  -0.022169529900   5.815901037479 Bohr
[INPUT]  4 C     -0.000000010000  -1.205177210000   2.360188210000 AA   -0.000000018897  -2.277454858467   4.460109319327 Bohr
[INPUT]  5 C      0.000000000000  -1.157781980000   0.969251150000 AA    0.000000000000  -2.187890854157   1.831619219420 Bohr
[INPUT]  6 N      0.000000000000   0.012755090000   0.314411150000 AA    0.000000000000   0.024103626794   0.594150964010 Bohr
[INPUT]  7 C      0.000000060000   0.006351950000  -1.189210130000 AA    0.000000113384   0.012003445857  -2.247281450258 Bohr
[INPUT]  8 H      0.000000020000   2.084780260000   0.401493640000 AA    0.000000037795   3.939663721300   0.758713020355 Bohr
[INPUT]  9 H      0.000000000000   2.139369270000   2.894492240000 AA    0.000000000000   4.042821999611   5.469797603279 Bohr
[INPUT] 10 H     -0.000000010000  -0.021463420000   4.160116660000 AA   -0.000000018897  -0.040559985497   7.861481133640 Bohr
[INPUT] 11 H     -0.000000020000  -2.161273900000   2.856586530000 AA   -0.000000037795  -4.084215751171   5.398166192822 Bohr
[INPUT] 12 H      0.000000000000  -2.061759920000   0.363580270000 AA    0.000000000000  -3.896161583405   0.687067134595 Bohr
[INPUT] 13 H     -0.000000030000   1.023303640000  -1.575753960000 AA   -0.000000056692   1.933763621871  -2.977743424099 Bohr
[INPUT] 14 H     -0.878979530000  -0.499248050000  -1.579478550000 AA   -1.661030580799  -0.943442082723  -2.984781879125 Bohr
[INPUT] 15 H      0.878979510000  -0.499247990000  -1.579478540000 AA    1.661030543004  -0.943441969340  -2.984781860228 Bohr
[INPUT] 16 Cl    -0.000000010000  -0.001469230000  -4.070016930000 AA   -0.000000018897  -0.002776442314  -7.691217320043 Bohr
[INPUT] ---------------- BASIS SET ---------------- 
[INPUT] l, kappa, [nprim/nctr], expnt,             c_1 c_2 ...
[INPUT] N
[INPUT] 0    0    [6    /1   ]  4173.511          0.0018348
                                627.4579          0.013995
                                142.9021          0.068587
                                40.23433          0.232241
                                12.82021          0.46907
                                4.390437          0.360455
[INPUT] 0    0    [3    /1   ]  11.626358         -0.114961
                                2.71628           -0.169118
                                0.772218          1.145852
[INPUT] 0    0    [1    /1   ]  0.2120313            1
[INPUT] 1    0    [3    /1   ]  11.626358         0.06758
                                2.71628           0.323907
                                0.772218          0.740895
[INPUT] 1    0    [1    /1   ]  0.2120313            1
[INPUT] 2    0    [1    /1   ]  0.8                  1
[INPUT] Cl
[INPUT] 0    0    [6    /1   ]  25180.1           0.001833
                                3780.35           0.014034
                                860.474           0.069097
                                242.145           0.237452
                                77.3349           0.483034
                                26.247            0.339856
[INPUT] 0    0    [6    /1   ]  491.765           -0.0022974
                                116.984           -0.030714
                                37.4153           -0.112528
                                13.7834           0.045016
                                5.45215           0.589353
                                2.22588           0.465206
[INPUT] 0    0    [3    /1   ]  3.18649           -0.25183
                                1.14427           0.061589
                                0.420377          1.06018
[INPUT] 0    0    [1    /1   ]  0.142657             1
[INPUT] 1    0    [6    /1   ]  491.765           0.0039894
                                116.984           0.030318
                                37.4153           0.12988
                                13.7834           0.327951
                                5.45215           0.453527
                                2.22588           0.252154
[INPUT] 1    0    [3    /1   ]  3.18649           -0.014299
                                1.14427           0.323572
                                0.420377          0.743507
[INPUT] 1    0    [1    /1   ]  0.142657             1
[INPUT] 2    0    [1    /1   ]  0.75                 1
[INPUT] C
[INPUT] 0    0    [6    /1   ]  3047.5249         0.0018347
                                457.36951         0.0140373
                                103.94869         0.0688426
                                29.210155         0.2321844
                                9.286663          0.4679413
                                3.163927          0.362312
[INPUT] 0    0    [3    /1   ]  7.8682724         -0.1193324
                                1.8812885         -0.1608542
                                0.5442493         1.1434564
[INPUT] 0    0    [1    /1   ]  0.1687144            1
[INPUT] 1    0    [3    /1   ]  7.8682724         0.0689991
                                1.8812885         0.316424
                                0.5442493         0.7443083
[INPUT] 1    0    [1    /1   ]  0.1687144            1
[INPUT] 2    0    [1    /1   ]  0.8                  1
[INPUT] H
[INPUT] 0    0    [3    /1   ]  18.731137         0.0334946
                                2.8253937         0.23472695
                                0.6401217         0.81375733
[INPUT] 0    0    [1    /1   ]  0.1612778            1

nuclear repulsion = 380.480329976285
number of shells = 66
number of NR pGTOs = 272
number of NR cGTOs = 132
basis = 631g*
ecp = {}
CPU time:         0.38


******** <class 'pyscf.dft.rks.RKS'> ********
method = RKS
initial guess = minao
damping factor = 0
level_shift factor = 0
DIIS = <class 'pyscf.scf.diis.CDIIS'>
diis_start_cycle = 1
diis_space = 8
SCF conv_tol = 1e-09
SCF conv_tol_grad = None
SCF max_cycles = 50
direct_scf = True
direct_scf_tol = 1e-13
chkfile to save SCF result = /scratch/global/yangjunjie/tmpw1pkkhlz
max_memory 256000 MB (current use 81 MB)
XC library pyscf.dft.libxc version 5.2.0
    S. Lehtola, C. Steigemann, M. J. Oliveira, and M. A. Marques, SoftwareX 7, 1 (2018)
XC functionals = b3lyp
    P. A. M. Dirac, Math. Proc. Cambridge Philos. Soc. 26, 376 (1930)
    F. Bloch, Z. Phys. 57, 545 (1929)
    A. D. Becke, Phys. Rev. A 38, 3098 (1988)
    C. Lee, W. Yang, and R. G. Parr, Phys. Rev. B 37, 785 (1988)
    B. Miehlich, A. Savin, H. Stoll, and H. Preuss, Chem. Phys. Lett. 157, 200 (1989)
    S. H. Vosko, L. Wilk, and M. Nusair, Can. J. Phys. 58, 1200 (1980)
radial grids: 
    Treutler-Ahlrichs [JCP 102, 346 (1995); DOI:10.1063/1.469408] (M4) radial grids
    
becke partition: Becke, JCP 88, 2547 (1988); DOI:10.1063/1.454033
pruning grids: <function nwchem_prune at 0x7f6bca2aaee0>
grids dens level: 3
symmetrized grids: False
atomic radii adjust function: <function treutler_atomic_radii_adjust at 0x7f6bca2aae50>
small_rho_cutoff = 1e-07
Set gradient conv threshold to 3.16228e-05
atom C rad-grids = 75, ang-grids = [ 50  50  50  50  50  50  50  50  50  50  50  50  50  50  50  50  50  50
  50  50  50  50  50  86  86  86  86  86  86  86  86  86  86 266 266 266
 266 266 266 266 302 302 302 302 302 302 302 302 302 302 302 302 302 302
 302 302 302 302 302 302 266 266 266 266 266 266 266 266 266 266 266 266
 266 266 266]
atom N rad-grids = 75, ang-grids = [ 50  50  50  50  50  50  50  50  50  50  50  50  50  50  50  50  50  50
  50  50  50  50  50  86  86  86  86  86  86  86  86  86 266 266 266 266
 266 266 266 302 302 302 302 302 302 302 302 302 302 302 302 302 302 302
 302 302 302 302 266 266 266 266 266 266 266 266 266 266 266 266 266 266
 266 266 266]
atom H rad-grids = 50, ang-grids = [ 50  50  50  50  50  50  50  50  50  50  50  50  50  50  86  86  86  86
 266 266 266 266 302 302 302 302 302 302 302 302 302 302 302 302 302 266
 266 266 266 266 266 266 266 266 266 266 266 266 266 266]
atom Cl rad-grids = 80, ang-grids = [ 50  50  50  50  50  50  50  50  50  50  50  50  50  50  50  50  50  50
  50  50  50  50  50  50  86  86  86  86  86  86  86  86  86  86  86  86
  86 350 350 350 350 350 350 350 350 350 434 434 434 434 434 434 434 434
 434 434 434 434 434 434 434 434 434 434 350 350 350 350 350 350 350 350
 350 350 350 350 350 350 350 350]
tot grids = 196530
Drop grids 33696
    CPU time for setting up grids      2.97 sec, wall time      0.12 sec
nelec by numeric integration = 67.97669990319278
    CPU time for vxc      5.80 sec, wall time      0.21 sec
E1 = -1774.1592048365683  Ecoul = 715.0034234366111  Exc = -70.40777020401751
init E= -749.08322162769
cond(S) = 6605.815431640793
    CPU time for initialize scf     16.09 sec, wall time      0.65 sec
  HOMO = -0.29459994325359  LUMO = -0.1054293931968
  mo_energy =
[-1.01593493e+02 -1.44225705e+01 -1.02919433e+01 -1.02911785e+01
 -1.02904198e+01 -1.02857756e+01 -1.02844161e+01 -1.02842860e+01
 -9.53312334e+00 -7.28872628e+00 -7.28872354e+00 -7.28872255e+00
 -1.12475226e+00 -9.61601483e-01 -8.88273257e-01 -8.46164304e-01
 -8.09829511e-01 -7.19279904e-01 -7.03179490e-01 -5.83829773e-01
 -5.41020650e-01 -5.19840903e-01 -4.88686498e-01 -4.87268667e-01
 -4.70065032e-01 -4.28541239e-01 -4.11491887e-01 -4.00108123e-01
 -3.95081945e-01 -3.56100272e-01 -3.55088121e-01 -3.49649567e-01
 -3.20492072e-01 -2.94599943e-01 -1.05429393e-01 -8.06815261e-02
  3.49717763e-02  5.88046811e-02  8.03115946e-02  9.14499443e-02
  1.02255243e-01  1.16700470e-01  1.27505343e-01  1.39643098e-01
  1.39670117e-01  1.54460082e-01  2.30812378e-01  2.34812013e-01
  2.49596438e-01  2.67670811e-01  3.39622593e-01  3.83014938e-01
  4.04431193e-01  4.19528784e-01  4.22873591e-01  4.51439411e-01
  4.56936504e-01  4.75061347e-01  4.95175603e-01  5.20252746e-01
  5.32425582e-01  5.42424105e-01  5.45769466e-01  5.51724224e-01
  5.71638987e-01  5.73912552e-01  5.88640606e-01  6.14281163e-01
  6.54962008e-01  6.73683997e-01  7.08944322e-01  7.57240303e-01
  7.70388724e-01  7.71365682e-01  7.74663357e-01  7.85282490e-01
  8.02762686e-01  8.08520939e-01  8.10109919e-01  8.27469197e-01
  8.59668936e-01  8.66810861e-01  8.92342407e-01  8.99280117e-01
  9.09275609e-01  9.44488669e-01  9.82498479e-01  9.92013273e-01
  1.04411702e+00  1.07180253e+00  1.12209747e+00  1.16984831e+00
  1.17533952e+00  1.20748429e+00  1.28929588e+00  1.34477268e+00
  1.36437794e+00  1.40103856e+00  1.40748613e+00  1.41142271e+00
  1.43983902e+00  1.46227082e+00  1.66324934e+00  1.73099557e+00
  1.79180417e+00  1.83026450e+00  1.84381075e+00  1.85655817e+00
  1.86805680e+00  1.91087673e+00  1.97896951e+00  2.05545782e+00
  2.07019075e+00  2.08317987e+00  2.08538732e+00  2.12740136e+00
  2.16975644e+00  2.22352631e+00  2.24300347e+00  2.26064418e+00
  2.33296058e+00  2.36678279e+00  2.49023529e+00  2.51675549e+00
  2.60425909e+00  2.61647633e+00  2.65619880e+00  2.68203473e+00
  2.70723849e+00  2.78316054e+00  2.97532764e+00  3.35491283e+00]
nelec by numeric integration = 68.00006454778836
    CPU time for vxc      5.81 sec, wall time      0.21 sec
E1 = -1780.7410977654222  Ecoul = 723.0888069313621  Exc = -70.80989036728995
cycle= 1 E= -747.981851225065  delta_E=  1.1  |g|= 0.57  |ddm|= 3.85
    CPU time for cycle= 1      6.28 sec, wall time      0.22 sec
  HOMO = -0.0221895404482231  LUMO = -0.00965043387677584
  mo_energy =
[-1.00946663e+02 -1.46809520e+01 -1.03752011e+01 -1.03729410e+01
 -1.02161620e+01 -1.02009760e+01 -1.02006591e+01 -1.01843358e+01
 -8.93934141e+00 -6.69050925e+00 -6.69033675e+00 -6.69032650e+00
 -1.17502810e+00 -9.07446532e-01 -8.97968831e-01 -7.91854478e-01
 -7.57606211e-01 -7.14981723e-01 -6.16685748e-01 -5.99716616e-01
 -5.97708874e-01 -5.60497390e-01 -5.36472099e-01 -5.29340437e-01
 -4.46662003e-01 -4.41253744e-01 -4.30958669e-01 -4.20691767e-01
 -4.17216331e-01 -3.68921513e-01 -3.65754727e-01 -1.54853520e-01
 -1.03548561e-01 -2.21895404e-02 -9.65043388e-03 -8.80433138e-03
  1.54554125e-02  5.18816858e-02  5.56093531e-02  5.84908811e-02
  8.64738615e-02  1.06418586e-01  1.18402301e-01  1.39919997e-01
  1.45716769e-01  1.78701233e-01  1.87423805e-01  2.13711695e-01
  2.33149138e-01  2.51724181e-01  3.54447871e-01  3.64637601e-01
  3.95482931e-01  4.30642009e-01  4.45449429e-01  4.77010841e-01
  4.81003844e-01  4.97267642e-01  5.16932960e-01  5.26202715e-01
  5.51745624e-01  5.56793512e-01  5.71873318e-01  5.87594531e-01
  6.14362852e-01  6.56652067e-01  6.75510699e-01  7.07319566e-01
  7.08607252e-01  7.22147062e-01  7.30503908e-01  7.32743557e-01
  7.41184116e-01  7.83679791e-01  7.91091019e-01  8.34700740e-01
  8.52656582e-01  8.65952893e-01  8.83390174e-01  9.03199996e-01
  9.13736330e-01  9.32680385e-01  1.00017845e+00  1.01417138e+00
  1.01536814e+00  1.09666472e+00  1.11786667e+00  1.12953361e+00
  1.15313218e+00  1.22604188e+00  1.23848126e+00  1.23882296e+00
  1.24839865e+00  1.25103201e+00  1.28645842e+00  1.34246314e+00
  1.34919362e+00  1.35907425e+00  1.35976239e+00  1.39785747e+00
  1.40888910e+00  1.41088334e+00  1.60527295e+00  1.72225401e+00
  1.75117328e+00  1.79065374e+00  1.83510706e+00  1.83992288e+00
  1.85889863e+00  1.91015743e+00  1.96432260e+00  2.01837507e+00
  2.02544156e+00  2.05865412e+00  2.06783066e+00  2.08565123e+00
  2.17761729e+00  2.20385421e+00  2.23736047e+00  2.27600567e+00
  2.32416855e+00  2.33718545e+00  2.46125050e+00  2.48633574e+00
  2.57833226e+00  2.59174540e+00  2.63151139e+00  2.65643057e+00
  2.69656649e+00  2.75769982e+00  2.93856926e+00  3.32931683e+00]
nelec by numeric integration = 68.0000945623607
    CPU time for vxc      5.99 sec, wall time      0.21 sec
E1 = -1778.1162193762698  Ecoul = 725.3597010606719  Exc = -70.52645999589012
cycle= 2 E= -742.802648335203  delta_E= 5.18  |g|= 2.73  |ddm|= 4.96
    CPU time for cycle= 2      6.47 sec, wall time      0.23 sec
  HOMO = -0.171690533304034  LUMO = -0.0686027398957659
  mo_energy =
[-1.01271298e+02 -1.45120302e+01 -1.02436391e+01 -1.02426849e+01
 -1.01746824e+01 -1.01322104e+01 -1.01140333e+01 -1.01137529e+01
 -9.22929653e+00 -6.98414398e+00 -6.98413310e+00 -6.98228528e+00
 -1.05681546e+00 -8.12889828e-01 -8.01483846e-01 -7.29267445e-01
 -6.65249546e-01 -6.36446854e-01 -6.26777786e-01 -5.56824732e-01
 -5.10713354e-01 -5.01710961e-01 -4.98174518e-01 -4.59906856e-01
 -4.55293518e-01 -4.06096825e-01 -3.94232069e-01 -3.67240958e-01
 -3.64769443e-01 -2.93698395e-01 -2.76142453e-01 -1.75612973e-01
 -1.71982782e-01 -1.71690533e-01 -6.86027399e-02 -2.50473884e-02
  6.01267488e-02  1.07384150e-01  1.14919553e-01  1.27662819e-01
  1.27810795e-01  1.50274186e-01  1.59591931e-01  1.63734605e-01
  1.78312625e-01  1.81692431e-01  2.59192067e-01  2.75492730e-01
  3.01954377e-01  3.11035405e-01  4.09071042e-01  4.39593476e-01
  4.62841777e-01  4.68939333e-01  5.10179309e-01  5.36704539e-01
  5.38264920e-01  5.44284954e-01  5.58589190e-01  5.67712845e-01
  5.74178234e-01  5.96016117e-01  6.03699679e-01  6.23265964e-01
  6.30068885e-01  6.35368920e-01  6.56130376e-01  6.57110249e-01
  7.20539697e-01  7.26757598e-01  7.66464094e-01  7.92870698e-01
  8.02858595e-01  8.05385593e-01  8.49814826e-01  8.56759333e-01
  8.80311790e-01  8.86752335e-01  9.22365645e-01  9.48892223e-01
  9.63670985e-01  9.90092837e-01  1.00522862e+00  1.03130617e+00
  1.03159862e+00  1.04785307e+00  1.04823999e+00  1.07944860e+00
  1.08364298e+00  1.13146601e+00  1.16644065e+00  1.20028350e+00
  1.21948046e+00  1.25550452e+00  1.31149657e+00  1.35585484e+00
  1.42805281e+00  1.43003790e+00  1.45606639e+00  1.47035089e+00
  1.49358394e+00  1.49973093e+00  1.69405348e+00  1.80345728e+00
  1.81924154e+00  1.87022435e+00  1.88636331e+00  1.91005852e+00
  1.94073611e+00  1.97547360e+00  2.05542993e+00  2.10519590e+00
  2.12132253e+00  2.14367575e+00  2.14398468e+00  2.17656346e+00
  2.25120387e+00  2.29449936e+00  2.30468134e+00  2.32197169e+00
  2.38529137e+00  2.39894463e+00  2.55182452e+00  2.57313189e+00
  2.67085135e+00  2.67696921e+00  2.72592323e+00  2.74960058e+00
  2.78443608e+00  2.83127258e+00  3.02965061e+00  3.42202349e+00]
nelec by numeric integration = 68.00006910863048
    CPU time for vxc      5.78 sec, wall time      0.21 sec
E1 = -1775.4484725887578  Ecoul = 717.3004434567126  Exc = -70.34760322850474
cycle= 3 E= -748.015302384265  delta_E= -5.21  |g|= 0.497  |ddm|= 4.56
    CPU time for cycle= 3      6.27 sec, wall time      0.22 sec
  HOMO = -0.135478942575121  LUMO = -0.111607530548091
  mo_energy =
[-1.01264637e+02 -1.44490450e+01 -1.02916608e+01 -1.02914287e+01
 -1.02894922e+01 -1.02732759e+01 -1.02726012e+01 -1.02039765e+01
 -9.21003533e+00 -6.96577108e+00 -6.96577033e+00 -6.96496377e+00
 -1.05767825e+00 -8.97614481e-01 -8.44364419e-01 -7.53799307e-01
 -7.20670149e-01 -6.87248593e-01 -6.00503415e-01 -5.85759686e-01
 -5.68056163e-01 -5.43449579e-01 -5.06713414e-01 -5.06059435e-01
 -5.05694069e-01 -4.44419121e-01 -4.29960342e-01 -4.17485480e-01
 -4.06723637e-01 -3.53783885e-01 -3.35997338e-01 -1.39053805e-01
 -1.35792171e-01 -1.35478943e-01 -1.11607531e-01 -8.61465174e-02
  3.14077408e-02  6.31144542e-02  8.18047838e-02  8.92673868e-02
  1.10216436e-01  1.28501844e-01  1.38369879e-01  1.50068786e-01
  1.67693871e-01  1.86880999e-01  2.22709192e-01  2.39979163e-01
  2.48468130e-01  2.72904942e-01  3.76352471e-01  3.93269278e-01
  4.36415960e-01  4.63278786e-01  4.78520050e-01  4.87928398e-01
  5.06421503e-01  5.21947267e-01  5.25752465e-01  5.34564486e-01
  5.39360603e-01  5.59831185e-01  5.70921688e-01  5.70938313e-01
  5.99236227e-01  6.00846185e-01  6.06140539e-01  6.72386245e-01
  6.72662689e-01  7.27825911e-01  7.48399513e-01  7.65517097e-01
  7.69096276e-01  7.92777211e-01  8.04720088e-01  8.07602621e-01
  8.52088803e-01  8.59215330e-01  8.94502704e-01  9.08101481e-01
  9.20248132e-01  9.68248250e-01  9.97616250e-01  1.02564784e+00
  1.04190940e+00  1.07212390e+00  1.07212907e+00  1.08514168e+00
  1.09247337e+00  1.10280396e+00  1.14644311e+00  1.16174187e+00
  1.16565135e+00  1.26834800e+00  1.28995706e+00  1.33090236e+00
  1.36683042e+00  1.39046306e+00  1.39286350e+00  1.40127337e+00
  1.42854705e+00  1.44389394e+00  1.65026625e+00  1.74096926e+00
  1.79052709e+00  1.83860220e+00  1.86315790e+00  1.87064331e+00
  1.87210208e+00  1.93015167e+00  1.98255665e+00  2.05323862e+00
  2.07224276e+00  2.08206764e+00  2.09356949e+00  2.12337195e+00
  2.18762397e+00  2.22350034e+00  2.26305714e+00  2.29437313e+00
  2.35774126e+00  2.38217258e+00  2.48651168e+00  2.51535987e+00
  2.60434801e+00  2.61407645e+00  2.66225921e+00  2.68718527e+00
  2.71648319e+00  2.79728832e+00  2.97980128e+00  3.36202295e+00]
nelec by numeric integration = 68.00006679090737
    CPU time for vxc      5.77 sec, wall time      0.21 sec
E1 = -1776.4780367562078  Ecoul = 718.3447169948449  Exc = -70.43302634641385
cycle= 4 E= -748.086016131492  delta_E= -0.0707  |g|= 0.129  |ddm|= 0.703
    CPU time for cycle= 4      6.29 sec, wall time      0.23 sec
  HOMO = -0.159877100908026  LUMO = -0.120331281839818
  mo_energy =
[-1.01371662e+02 -1.44935357e+01 -1.03173227e+01 -1.03171579e+01
 -1.02781105e+01 -1.02778322e+01 -1.02689427e+01 -1.02444531e+01
 -9.29265384e+00 -7.05084451e+00 -7.05025918e+00 -7.05024059e+00
 -1.08131361e+00 -8.99608004e-01 -8.58645937e-01 -7.69133427e-01
 -7.32815185e-01 -6.99324067e-01 -6.23598160e-01 -6.01621594e-01
 -5.78008387e-01 -5.52181157e-01 -5.25940066e-01 -5.17974963e-01
 -5.17085665e-01 -4.50120421e-01 -4.39361662e-01 -4.28783894e-01
 -4.25250564e-01 -3.63137601e-01 -3.47027015e-01 -1.63878684e-01
 -1.59955782e-01 -1.59877101e-01 -1.20331282e-01 -9.43164170e-02
  2.60031245e-02  5.63760946e-02  7.44867239e-02  8.25522300e-02
  1.02597184e-01  1.21583889e-01  1.28713216e-01  1.39524063e-01
  1.55914807e-01  1.74809408e-01  2.15573856e-01  2.28531460e-01
  2.40926901e-01  2.62161895e-01  3.67151115e-01  3.83743141e-01
  4.25017745e-01  4.55024993e-01  4.63675478e-01  4.82452455e-01
  4.93062086e-01  5.12710408e-01  5.20340945e-01  5.31157759e-01
  5.34237665e-01  5.46882198e-01  5.59516854e-01  5.63000904e-01
  5.85977654e-01  5.92082854e-01  5.93993022e-01  6.54419771e-01
  6.63310452e-01  7.11925862e-01  7.36418508e-01  7.55042600e-01
  7.71468454e-01  7.83424901e-01  7.88062898e-01  7.91392654e-01
  8.46101802e-01  8.55464036e-01  8.76767891e-01  8.98310319e-01
  9.11290182e-01  9.54300530e-01  9.82363493e-01  1.01451301e+00
  1.03382543e+00  1.03983099e+00  1.04006882e+00  1.05303804e+00
  1.06488203e+00  1.09659194e+00  1.12523330e+00  1.15007618e+00
  1.15429195e+00  1.24862484e+00  1.27426579e+00  1.32039668e+00
  1.35480831e+00  1.38108252e+00  1.38553355e+00  1.39966978e+00
  1.41548552e+00  1.42975079e+00  1.63857318e+00  1.73242104e+00
  1.78169109e+00  1.81998546e+00  1.85066070e+00  1.85803283e+00
  1.85998106e+00  1.91575021e+00  1.97526752e+00  2.04160412e+00
  2.06088851e+00  2.06838332e+00  2.08374923e+00  2.11071879e+00
  2.17908096e+00  2.21211894e+00  2.25383327e+00  2.27478116e+00
  2.34091599e+00  2.36126319e+00  2.47705993e+00  2.50897454e+00
  2.59477705e+00  2.60094661e+00  2.65099176e+00  2.67672385e+00
  2.70954284e+00  2.78064531e+00  2.96473493e+00  3.35030785e+00]
nelec by numeric integration = 68.00006599147859
    CPU time for vxc      5.80 sec, wall time      0.21 sec
E1 = -1778.0493847264288  Ecoul = 720.0262423419042  Exc = -70.54531983055517
cycle= 5 E= -748.088132238795  delta_E= -0.00212  |g|= 0.0824  |ddm|= 0.235
    CPU time for cycle= 5      6.34 sec, wall time      0.23 sec
  HOMO = -0.140235863749677  LUMO = -0.120891648443158
  mo_energy =
[-1.01327798e+02 -1.44917027e+01 -1.03135220e+01 -1.03119187e+01
 -1.02850728e+01 -1.02749798e+01 -1.02746825e+01 -1.02287715e+01
 -9.25515128e+00 -7.01270506e+00 -7.01236178e+00 -7.01197513e+00
 -1.07941813e+00 -9.02798242e-01 -8.58321378e-01 -7.67499590e-01
 -7.34083266e-01 -7.00113096e-01 -6.10570615e-01 -5.93769722e-01
 -5.79928986e-01 -5.54669029e-01 -5.24742400e-01 -5.18826489e-01
 -5.17711149e-01 -4.53780713e-01 -4.41410412e-01 -4.27815398e-01
 -4.21049121e-01 -3.64990314e-01 -3.47711494e-01 -1.44135760e-01
 -1.41611515e-01 -1.40235864e-01 -1.20891648e-01 -9.47524085e-02
  2.37274682e-02  5.38562232e-02  7.26432045e-02  8.01253256e-02
  1.01153764e-01  1.19218633e-01  1.27692321e-01  1.41834728e-01
  1.58079001e-01  1.78523910e-01  2.12714097e-01  2.28217926e-01
  2.39008694e-01  2.62089998e-01  3.65608716e-01  3.83045965e-01
  4.24480819e-01  4.52445974e-01  4.70936770e-01  4.80502385e-01
  4.92414648e-01  5.11459101e-01  5.17940751e-01  5.29202018e-01
  5.31394606e-01  5.54165516e-01  5.61128775e-01  5.64131965e-01
  5.90548657e-01  5.98752115e-01  6.04098738e-01  6.63391751e-01
  6.64131782e-01  7.16835485e-01  7.37256128e-01  7.54207349e-01
  7.65762501e-01  7.84341289e-01  7.89365939e-01  7.97361555e-01
  8.43973943e-01  8.52114748e-01  8.81496889e-01  8.99372607e-01
  9.10242033e-01  9.54150501e-01  9.85816289e-01  1.01531326e+00
  1.03163359e+00  1.06462093e+00  1.06467479e+00  1.07613373e+00
  1.08442046e+00  1.09523596e+00  1.13417854e+00  1.14986305e+00
  1.15299026e+00  1.25816704e+00  1.27527569e+00  1.31885893e+00
  1.35467560e+00  1.37867207e+00  1.38260939e+00  1.39480245e+00
  1.41507550e+00  1.42933524e+00  1.63705873e+00  1.73143735e+00
  1.78038018e+00  1.82178187e+00  1.85403149e+00  1.85598967e+00
  1.85863710e+00  1.91762861e+00  1.97332111e+00  2.04107236e+00
  2.06000151e+00  2.06817775e+00  2.08292626e+00  2.10943166e+00
  2.17775957e+00  2.21118911e+00  2.25162844e+00  2.27913362e+00
  2.34344363e+00  2.36405748e+00  2.47593379e+00  2.50641726e+00
  2.59313184e+00  2.59959477e+00  2.64995200e+00  2.67535320e+00
  2.70739200e+00  2.78259173e+00  2.96479047e+00  3.34938580e+00]
nelec by numeric integration = 68.00006611138883
    CPU time for vxc      7.80 sec, wall time      0.30 sec
E1 = -1777.530637885178  Ecoul = 719.4509864138981  Exc = -70.48700250721583
cycle= 6 E= -748.086324002211  delta_E= 0.00181  |g|= 0.0973  |ddm|=  0.5
    CPU time for cycle= 6      8.38 sec, wall time      0.32 sec
  HOMO = -0.144035290381134  LUMO = -0.117971806160883
  mo_energy =
[-1.01329628e+02 -1.44846773e+01 -1.03095574e+01 -1.03079628e+01
 -1.02762194e+01 -1.02726414e+01 -1.02720469e+01 -1.02264206e+01
 -9.25784045e+00 -7.01567644e+00 -7.01482875e+00 -7.01434043e+00
 -1.07537837e+00 -8.98811043e-01 -8.55036936e-01 -7.64538333e-01
 -7.30624039e-01 -6.97045712e-01 -6.09839599e-01 -5.95102804e-01
 -5.76145717e-01 -5.52145710e-01 -5.21454892e-01 -5.16125129e-01
 -5.14425082e-01 -4.50497299e-01 -4.38016441e-01 -4.25652393e-01
 -4.19926203e-01 -3.61658519e-01 -3.44804264e-01 -1.47431994e-01
 -1.44680853e-01 -1.44035290e-01 -1.17971806e-01 -9.15651418e-02
  2.59299650e-02  5.71670261e-02  7.44431204e-02  8.22408949e-02
  1.03285486e-01  1.21130226e-01  1.30160008e-01  1.42760373e-01
  1.59266764e-01  1.78933739e-01  2.15819611e-01  2.30971394e-01
  2.41709357e-01  2.64333857e-01  3.67970984e-01  3.85788700e-01
  4.27117060e-01  4.55669904e-01  4.71250470e-01  4.83135652e-01
  4.95510626e-01  5.14043034e-01  5.20903738e-01  5.32093209e-01
  5.34410394e-01  5.53721891e-01  5.63040701e-01  5.66009864e-01
  5.93372408e-01  5.96881094e-01  6.01989666e-01  6.63594418e-01
  6.65232856e-01  7.17749632e-01  7.39455835e-01  7.56398559e-01
  7.69366624e-01  7.86131393e-01  7.92209044e-01  7.97193345e-01
  8.46706464e-01  8.54927202e-01  8.82392595e-01  9.00990411e-01
  9.12582335e-01  9.56598076e-01  9.86677039e-01  1.01728011e+00
  1.03440334e+00  1.06029172e+00  1.06042747e+00  1.07210570e+00
  1.08212556e+00  1.09730471e+00  1.13432894e+00  1.15243665e+00
  1.15671681e+00  1.25753376e+00  1.27841909e+00  1.32184535e+00
  1.35786354e+00  1.38128974e+00  1.38660995e+00  1.39902919e+00
  1.41819498e+00  1.43222189e+00  1.64042592e+00  1.73488499e+00
  1.78348383e+00  1.82497132e+00  1.85641891e+00  1.85962608e+00
  1.86144043e+00  1.92009093e+00  1.97702867e+00  2.04428639e+00
  2.06370519e+00  2.07132736e+00  2.08626745e+00  2.11319727e+00
  2.18102591e+00  2.21444903e+00  2.25545892e+00  2.28083914e+00
  2.34600173e+00  2.36689008e+00  2.47911498e+00  2.51020693e+00
  2.59672574e+00  2.60329870e+00  2.65349707e+00  2.67909917e+00
  2.71133257e+00  2.78560896e+00  2.96838903e+00  3.35308652e+00]
nelec by numeric integration = 68.00006637359812
    CPU time for vxc      8.79 sec, wall time      0.32 sec
E1 = -1777.4168133212681  Ecoul = 719.3322362864462  Exc = -70.48623470063605
cycle= 7 E= -748.090481759173  delta_E= -0.00416  |g|= 0.0389  |ddm|= 0.148
    CPU time for cycle= 7      9.57 sec, wall time      0.35 sec
  HOMO = -0.14935893065411  LUMO = -0.116212133333611
  mo_energy =
[-1.01336731e+02 -1.44830015e+01 -1.03056290e+01 -1.03046453e+01
 -1.02745693e+01 -1.02693524e+01 -1.02689658e+01 -1.02272273e+01
 -9.26481250e+00 -7.02282760e+00 -7.02172347e+00 -7.02122860e+00
 -1.07329303e+00 -8.96402399e-01 -8.52194107e-01 -7.63421860e-01
 -7.28062688e-01 -6.94714423e-01 -6.12162818e-01 -5.96363671e-01
 -5.73443168e-01 -5.49524558e-01 -5.19671294e-01 -5.13420485e-01
 -5.13145864e-01 -4.47851348e-01 -4.35726665e-01 -4.24650763e-01
 -4.19955468e-01 -3.59965058e-01 -3.41994177e-01 -1.52479891e-01
 -1.49544564e-01 -1.49358931e-01 -1.16212133e-01 -8.87707259e-02
  2.77779908e-02  5.96469073e-02  7.63589053e-02  8.38732866e-02
  1.04870864e-01  1.23142019e-01  1.31711630e-01  1.42858799e-01
  1.59692915e-01  1.78540367e-01  2.18139294e-01  2.32642635e-01
  2.43862628e-01  2.66003044e-01  3.69774679e-01  3.87983955e-01
  4.29239655e-01  4.58034603e-01  4.70299508e-01  4.84769789e-01
  4.97988438e-01  5.16502297e-01  5.23365736e-01  5.33817782e-01
  5.36625997e-01  5.52498146e-01  5.64177705e-01  5.66745767e-01
  5.94026140e-01  5.95547552e-01  5.99163288e-01  6.61732669e-01
  6.66614737e-01  7.17657312e-01  7.41050416e-01  7.58645550e-01
  7.71552510e-01  7.87514653e-01  7.93444753e-01  7.96487689e-01
  8.48569964e-01  8.57134997e-01  8.82089354e-01  9.01658579e-01
  9.14373478e-01  9.58471557e-01  9.86572039e-01  1.01889588e+00
  1.03635442e+00  1.05398843e+00  1.05418261e+00  1.06623835e+00
  1.07762043e+00  1.09900956e+00  1.13307692e+00  1.15428936e+00
  1.15938637e+00  1.25567772e+00  1.28031786e+00  1.32359911e+00
  1.36014594e+00  1.38357749e+00  1.38919681e+00  1.40174990e+00
  1.42115826e+00  1.43422596e+00  1.64292082e+00  1.73724496e+00
  1.78548594e+00  1.82633971e+00  1.85760204e+00  1.86211619e+00
  1.86354733e+00  1.92165065e+00  1.97965107e+00  2.04691584e+00
  2.06615929e+00  2.07399630e+00  2.08814464e+00  2.11566682e+00
  2.18296845e+00  2.21739005e+00  2.25771385e+00  2.28124243e+00
  2.34750890e+00  2.36818380e+00  2.48182247e+00  2.51251828e+00
  2.59933634e+00  2.60598928e+00  2.65631046e+00  2.68169764e+00
  2.71365681e+00  2.78719745e+00  2.97079534e+00  3.35569991e+00]
nelec by numeric integration = 68.00006638715635
    CPU time for vxc      7.21 sec, wall time      0.27 sec
E1 = -1777.440153884257  Ecoul = 719.3616888211958  Exc = -70.49320254739254
cycle= 8 E= -748.091337634169  delta_E= -0.000856  |g|= 0.00601  |ddm|= 0.109
    CPU time for cycle= 8      7.71 sec, wall time      0.28 sec
  HOMO = -0.149686711059053  LUMO = -0.115437410614494
  mo_energy =
[-1.01335143e+02 -1.44814469e+01 -1.03056388e+01 -1.03043448e+01
 -1.02724407e+01 -1.02689998e+01 -1.02685364e+01 -1.02265346e+01
 -9.26388148e+00 -7.02185263e+00 -7.02071613e+00 -7.02022438e+00
 -1.07253018e+00 -8.95503791e-01 -8.51671390e-01 -7.62783174e-01
 -7.27338465e-01 -6.94156136e-01 -6.12129388e-01 -5.95961454e-01
 -5.72708121e-01 -5.48957612e-01 -5.19043086e-01 -5.12933641e-01
 -5.12405397e-01 -4.47109482e-01 -4.35041182e-01 -4.24198802e-01
 -4.19740479e-01 -3.59195977e-01 -3.41512813e-01 -1.52746407e-01
 -1.49831254e-01 -1.49686711e-01 -1.15437411e-01 -8.82165714e-02
  2.82850058e-02  6.03499972e-02  7.67240912e-02  8.43489563e-02
  1.05345229e-01  1.23559427e-01  1.32289244e-01  1.43079566e-01
  1.59929379e-01  1.78609155e-01  2.18813040e-01  2.33229488e-01
  2.44441143e-01  2.66437127e-01  3.70282438e-01  3.88508718e-01
  4.29690862e-01  4.58717142e-01  4.70425025e-01  4.85372678e-01
  4.98538081e-01  5.16984802e-01  5.23971202e-01  5.34411442e-01
  5.37300054e-01  5.52650544e-01  5.64540877e-01  5.67149820e-01
  5.93887331e-01  5.96127040e-01  5.99109936e-01  6.61769170e-01
  6.67026058e-01  7.17863118e-01  7.41468716e-01  7.59038884e-01
  7.72416280e-01  7.87857009e-01  7.94034479e-01  7.96692638e-01
  8.49173423e-01  8.57791652e-01  8.82306186e-01  9.02024471e-01
  9.14858393e-01  9.58954494e-01  9.86764131e-01  1.01932015e+00
  1.03698756e+00  1.05375558e+00  1.05395357e+00  1.06605374e+00
  1.07753872e+00  1.09959942e+00  1.13332297e+00  1.15485461e+00
  1.16009870e+00  1.25574015e+00  1.28092204e+00  1.32425775e+00
  1.36077633e+00  1.38415171e+00  1.39006664e+00  1.40266692e+00
  1.42167883e+00  1.43482937e+00  1.64359015e+00  1.73793356e+00
  1.78613812e+00  1.82702220e+00  1.85804500e+00  1.86295878e+00
  1.86408362e+00  1.92215665e+00  1.98036912e+00  2.04752035e+00
  2.06688314e+00  2.07453207e+00  2.08886431e+00  2.11641600e+00
  2.18367537e+00  2.21797106e+00  2.25853456e+00  2.28159436e+00
  2.34798469e+00  2.36874431e+00  2.48241991e+00  2.51334445e+00
  2.60004317e+00  2.60669870e+00  2.65695569e+00  2.68242539e+00
  2.71450830e+00  2.78781374e+00  2.97146766e+00  3.35641873e+00]
nelec by numeric integration = 68.00006642403166
    CPU time for vxc      6.07 sec, wall time      0.22 sec
E1 = -1777.4096544860404  Ecoul = 719.328923955708  Exc = -70.49094780671751
cycle= 9 E= -748.091348360765  delta_E= -1.07e-05  |g|= 0.00141  |ddm|= 0.00764
    CPU time for cycle= 9      6.57 sec, wall time      0.24 sec
  HOMO = -0.14981817330479  LUMO = -0.115396016636087
  mo_energy =
[-1.01335264e+02 -1.44815492e+01 -1.03053979e+01 -1.03042473e+01
 -1.02723800e+01 -1.02691611e+01 -1.02686113e+01 -1.02266091e+01
 -9.26401172e+00 -7.02198384e+00 -7.02084267e+00 -7.02035413e+00
 -1.07246817e+00 -8.95473515e-01 -8.51595898e-01 -7.62766635e-01
 -7.27308446e-01 -6.94107315e-01 -6.12212128e-01 -5.95964400e-01
 -5.72667533e-01 -5.48940466e-01 -5.18993117e-01 -5.12872085e-01
 -5.12392159e-01 -4.47087840e-01 -4.35011317e-01 -4.24178431e-01
 -4.19730506e-01 -3.59170574e-01 -3.41445536e-01 -1.52873654e-01
 -1.49940206e-01 -1.49818173e-01 -1.15396017e-01 -8.81671903e-02
  2.83268334e-02  6.03875850e-02  7.67716040e-02  8.43922807e-02
  1.05381982e-01  1.23597961e-01  1.32316053e-01  1.43078833e-01
  1.59943032e-01  1.78606912e-01  2.18855807e-01  2.33262497e-01
  2.44478129e-01  2.66476287e-01  3.70319898e-01  3.88568851e-01
  4.29771062e-01  4.58757198e-01  4.70398654e-01  4.85402236e-01
  4.98628694e-01  5.17046431e-01  5.24021393e-01  5.34419889e-01
  5.37329106e-01  5.52620676e-01  5.64549952e-01  5.67153011e-01
  5.93817314e-01  5.96170857e-01  5.99045051e-01  6.61727941e-01
  6.67058560e-01  7.17870083e-01  7.41509557e-01  7.59102077e-01
  7.72430200e-01  7.87850684e-01  7.94060462e-01  7.96675872e-01
  8.49200941e-01  8.57811276e-01  8.82305223e-01  9.02026545e-01
  9.14909491e-01  9.59002631e-01  9.86774790e-01  1.01934741e+00
  1.03703829e+00  1.05360779e+00  1.05380744e+00  1.06592218e+00
  1.07742845e+00  1.09962250e+00  1.13329825e+00  1.15488884e+00
  1.16015699e+00  1.25570517e+00  1.28097168e+00  1.32429646e+00
  1.36080884e+00  1.38421154e+00  1.39010368e+00  1.40271975e+00
  1.42175240e+00  1.43488022e+00  1.64364409e+00  1.73797582e+00
  1.78617989e+00  1.82704375e+00  1.85809004e+00  1.86298574e+00
  1.86412831e+00  1.92218321e+00  1.98042975e+00  2.04757524e+00
  2.06693792e+00  2.07459270e+00  2.08889301e+00  2.11647150e+00
  2.18371198e+00  2.21802415e+00  2.25857154e+00  2.28161110e+00
  2.34802965e+00  2.36877929e+00  2.48248129e+00  2.51337812e+00
  2.60009004e+00  2.60674868e+00  2.65700639e+00  2.68247303e+00
  2.71453476e+00  2.78783810e+00  2.97151143e+00  3.35645791e+00]
nelec by numeric integration = 68.00006641232221
    CPU time for vxc      6.00 sec, wall time      0.22 sec
E1 = -1777.41042249984  Ecoul = 719.3299895755612  Exc = -70.49124637149164
cycle= 10 E= -748.091349319486  delta_E= -9.59e-07  |g|= 0.000625  |ddm|= 0.00298
    CPU time for cycle= 10      6.49 sec, wall time      0.23 sec
  HOMO = -0.149915887502665  LUMO = -0.115383036737167
  mo_energy =
[-1.01335442e+02 -1.44814510e+01 -1.03054929e+01 -1.03042484e+01
 -1.02723967e+01 -1.02690081e+01 -1.02685392e+01 -1.02266177e+01
 -9.26416904e+00 -7.02214419e+00 -7.02100026e+00 -7.02051366e+00
 -1.07244214e+00 -8.95434924e-01 -8.51568759e-01 -7.62749246e-01
 -7.27270692e-01 -6.94082557e-01 -6.12283316e-01 -5.95982161e-01
 -5.72634270e-01 -5.48901321e-01 -5.18968035e-01 -5.12845031e-01
 -5.12371038e-01 -4.47048382e-01 -4.34982520e-01 -4.24161630e-01
 -4.19729525e-01 -3.59141474e-01 -3.41415680e-01 -1.52969975e-01
 -1.50026771e-01 -1.49915888e-01 -1.15383037e-01 -8.81373909e-02
  2.83503466e-02  6.04208148e-02  7.67945776e-02  8.44117751e-02
  1.05403145e-01  1.23625694e-01  1.32339586e-01  1.43082376e-01
  1.59949157e-01  1.78603233e-01  2.18888605e-01  2.33288232e-01
  2.44501903e-01  2.66495554e-01  3.70344555e-01  3.88597947e-01
  4.29783777e-01  4.58789369e-01  4.70372719e-01  4.85426860e-01
  4.98643787e-01  5.17076282e-01  5.24050858e-01  5.34434800e-01
  5.37359379e-01  5.52598758e-01  5.64559206e-01  5.67156383e-01
  5.93759402e-01  5.96200593e-01  5.98995268e-01  6.61689236e-01
  6.67073439e-01  7.17860086e-01  7.41522594e-01  7.59118255e-01
  7.72466260e-01  7.87863638e-01  7.94087766e-01  7.96666214e-01
  8.49226920e-01  8.57845958e-01  8.82303604e-01  9.02037780e-01
  9.14924198e-01  9.59024786e-01  9.86774486e-01  1.01936506e+00
  1.03706045e+00  1.05348815e+00  1.05368897e+00  1.06581252e+00
  1.07733807e+00  1.09964710e+00  1.13326772e+00  1.15491749e+00
  1.16018798e+00  1.25567186e+00  1.28099216e+00  1.32432086e+00
  1.36084277e+00  1.38423882e+00  1.39014191e+00  1.40275106e+00
  1.42178080e+00  1.43490768e+00  1.64367667e+00  1.73800492e+00
  1.78620620e+00  1.82706660e+00  1.85809613e+00  1.86302375e+00
  1.86415262e+00  1.92220435e+00  1.98045657e+00  2.04760791e+00
  2.06696646e+00  2.07462045e+00  2.08892406e+00  2.11649902e+00
  2.18373466e+00  2.21805949e+00  2.25860279e+00  2.28161539e+00
  2.34804003e+00  2.36879717e+00  2.48251073e+00  2.51341309e+00
  2.60012219e+00  2.60678111e+00  2.65703659e+00  2.68250283e+00
  2.71456862e+00  2.78786153e+00  2.97153897e+00  3.35648927e+00]
nelec by numeric integration = 68.00006641524445
    CPU time for vxc      5.94 sec, wall time      0.21 sec
E1 = -1777.4113091156732  Ecoul = 719.3310222135086  Exc = -70.49139255871559
cycle= 11 E= -748.091349484595  delta_E= -1.65e-07  |g|= 0.000255  |ddm|= 0.00241
    CPU time for cycle= 11      6.44 sec, wall time      0.23 sec
  HOMO = -0.149889606964576  LUMO = -0.115389610150823
  mo_energy =
[-1.01335394e+02 -1.44814762e+01 -1.03054708e+01 -1.03042652e+01
 -1.02723952e+01 -1.02690351e+01 -1.02685321e+01 -1.02266121e+01
 -9.26412582e+00 -7.02210011e+00 -7.02095685e+00 -7.02047018e+00
 -1.07245642e+00 -8.95444230e-01 -8.51578162e-01 -7.62755090e-01
 -7.27279455e-01 -6.94088454e-01 -6.12264553e-01 -5.95977524e-01
 -5.72642072e-01 -5.48906441e-01 -5.18979204e-01 -5.12852927e-01
 -5.12377234e-01 -4.47055241e-01 -4.34988952e-01 -4.24166633e-01
 -4.19731333e-01 -3.59149934e-01 -3.41424205e-01 -1.52945214e-01
 -1.50002165e-01 -1.49889607e-01 -1.15389610e-01 -8.81454794e-02
  2.83451830e-02  6.04139208e-02  7.67891836e-02  8.44067295e-02
  1.05398216e-01  1.23620519e-01  1.32334212e-01  1.43080860e-01
  1.59946156e-01  1.78601671e-01  2.18880525e-01  2.33280152e-01
  2.44498647e-01  2.66489579e-01  3.70338906e-01  3.88587855e-01
  4.29777647e-01  4.58781468e-01  4.70378317e-01  4.85421106e-01
  4.98635235e-01  5.17067895e-01  5.24043265e-01  5.34434781e-01
  5.37353250e-01  5.52604041e-01  5.64557273e-01  5.67155661e-01
  5.93773912e-01  5.96193052e-01  5.99008729e-01  6.61697755e-01
  6.67070782e-01  7.17860609e-01  7.41518287e-01  7.59113653e-01
  7.72460276e-01  7.87863663e-01  7.94077012e-01  7.96669347e-01
  8.49221931e-01  8.57840369e-01  8.82301982e-01  9.02035350e-01
  9.14920516e-01  9.59018175e-01  9.86773331e-01  1.01936147e+00
  1.03705357e+00  1.05352013e+00  1.05372071e+00  1.06584200e+00
  1.07736159e+00  1.09964300e+00  1.13327452e+00  1.15490947e+00
  1.16017866e+00  1.25567905e+00  1.28098357e+00  1.32431308e+00
  1.36083400e+00  1.38423088e+00  1.39013187e+00  1.40274344e+00
  1.42177154e+00  1.43489790e+00  1.64366697e+00  1.73799713e+00
  1.78619876e+00  1.82705806e+00  1.85809207e+00  1.86301620e+00
  1.86414470e+00  1.92219867e+00  1.98044832e+00  2.04759770e+00
  2.06695634e+00  2.07461295e+00  2.08891444e+00  2.11649024e+00
  2.18373001e+00  2.21805134e+00  2.25859457e+00  2.28161339e+00
  2.34803451e+00  2.36878897e+00  2.48250251e+00  2.51340375e+00
  2.60011355e+00  2.60677274e+00  2.65702918e+00  2.68249465e+00
  2.71456079e+00  2.78785379e+00  2.97153064e+00  3.35648157e+00]
nelec by numeric integration = 68.00006641529396
    CPU time for vxc      7.00 sec, wall time      0.26 sec
E1 = -1777.411099125512  Ecoul = 719.3307710377292  Exc = -70.49135139816624
cycle= 12 E= -748.091349509664  delta_E= -2.51e-08  |g|= 8.69e-05  |ddm|= 0.000409
    CPU time for cycle= 12      7.50 sec, wall time      0.27 sec
  HOMO = -0.149880855992875  LUMO = -0.115392755977116
  mo_energy =
[-1.01335384e+02 -1.44814848e+01 -1.03054778e+01 -1.03042594e+01
 -1.02723985e+01 -1.02690356e+01 -1.02685439e+01 -1.02266144e+01
 -9.26411564e+00 -7.02208971e+00 -7.02094687e+00 -7.02046017e+00
 -1.07246125e+00 -8.95449013e-01 -8.51582327e-01 -7.62758388e-01
 -7.27283940e-01 -6.94092089e-01 -6.12258967e-01 -5.95977258e-01
 -5.72646445e-01 -5.48910403e-01 -5.18983326e-01 -5.12856738e-01
 -5.12380750e-01 -4.47059592e-01 -4.34992846e-01 -4.24169281e-01
 -4.19732938e-01 -3.59153822e-01 -3.41428270e-01 -1.52937028e-01
 -1.49994184e-01 -1.49880856e-01 -1.15392756e-01 -8.81496710e-02
  2.83420107e-02  6.04097240e-02  7.67862091e-02  8.44042636e-02
  1.05395270e-01  1.23617492e-01  1.32331293e-01  1.43079692e-01
  1.59944717e-01  1.78601544e-01  2.18876957e-01  2.33276980e-01
  2.44494105e-01  2.66486839e-01  3.70335708e-01  3.88583747e-01
  4.29774122e-01  4.58777634e-01  4.70379622e-01  4.85417792e-01
  4.98631510e-01  5.17064415e-01  5.24039593e-01  5.34431687e-01
  5.37350114e-01  5.52605404e-01  5.64556014e-01  5.67155072e-01
  5.93778222e-01  5.96189833e-01  5.99012735e-01  6.61700203e-01
  6.67067562e-01  7.17860130e-01  7.41515358e-01  7.59110736e-01
  7.72456939e-01  7.87861930e-01  7.94073466e-01  7.96669822e-01
  8.49218421e-01  8.57836778e-01  8.82301145e-01  9.02034274e-01
  9.14917603e-01  9.59014656e-01  9.86772584e-01  1.01935894e+00
  1.03705023e+00  1.05353039e+00  1.05373088e+00  1.06585143e+00
  1.07736892e+00  1.09963985e+00  1.13327595e+00  1.15490561e+00
  1.16017412e+00  1.25568137e+00  1.28097954e+00  1.32430927e+00
  1.36082958e+00  1.38422701e+00  1.39012737e+00  1.40273900e+00
  1.42176733e+00  1.43489382e+00  1.64366252e+00  1.73799301e+00
  1.78619471e+00  1.82705411e+00  1.85808889e+00  1.86301159e+00
  1.86414148e+00  1.92219515e+00  1.98044413e+00  2.04759366e+00
  2.06695229e+00  2.07460879e+00  2.08891104e+00  2.11648609e+00
  2.18372539e+00  2.21804707e+00  2.25859017e+00  2.28161102e+00
  2.34803175e+00  2.36878552e+00  2.48249807e+00  2.51339969e+00
  2.60010917e+00  2.60676830e+00  2.65702501e+00  2.68249052e+00
  2.71455625e+00  2.78784995e+00  2.97152654e+00  3.35647729e+00]
nelec by numeric integration = 68.00006641520193
    CPU time for vxc      6.53 sec, wall time      0.24 sec
E1 = -1777.4111004182155  Ecoul = 719.3307657091356  Exc = -70.49134478018132
cycle= 13 E= -748.091349512976  delta_E= -3.31e-09  |g|= 3.48e-05  |ddm|= 0.000153
    CPU time for cycle= 13      7.04 sec, wall time      0.26 sec
  HOMO = -0.149876104678556  LUMO = -0.115396070130426
  mo_energy =
[-1.01335385e+02 -1.44814868e+01 -1.03054797e+01 -1.03042658e+01
 -1.02724059e+01 -1.02690436e+01 -1.02685484e+01 -1.02266173e+01
 -9.26411452e+00 -7.02208857e+00 -7.02094611e+00 -7.02045936e+00
 -1.07246446e+00 -8.95454215e-01 -8.51586677e-01 -7.62761276e-01
 -7.27288160e-01 -6.94096075e-01 -6.12256696e-01 -5.95978697e-01
 -5.72651109e-01 -5.48914437e-01 -5.18986301e-01 -5.12860810e-01
 -5.12384018e-01 -4.47064258e-01 -4.34997127e-01 -4.24172001e-01
 -4.19733937e-01 -3.59157570e-01 -3.41432735e-01 -1.52932690e-01
 -1.49990053e-01 -1.49876105e-01 -1.15396070e-01 -8.81541613e-02
  2.83389503e-02  6.04053794e-02  7.67834010e-02  8.44015744e-02
  1.05392630e-01  1.23614460e-01  1.32328394e-01  1.43078854e-01
  1.59943549e-01  1.78601419e-01  2.18872955e-01  2.33273657e-01
  2.44490639e-01  2.66483961e-01  3.70332560e-01  3.88579907e-01
  4.29770851e-01  4.58773553e-01  4.70379910e-01  4.85414310e-01
  4.98627864e-01  5.17060350e-01  5.24035156e-01  5.34428672e-01
  5.37345776e-01  5.52605352e-01  5.64553697e-01  5.67153037e-01
  5.93780448e-01  5.96185928e-01  5.99014705e-01  6.61701487e-01
  6.67064924e-01  7.17859429e-01  7.41512732e-01  7.59107654e-01
  7.72452188e-01  7.87859796e-01  7.94071293e-01  7.96669005e-01
  8.49214980e-01  8.57832658e-01  8.82300553e-01  9.02032243e-01
  9.14914414e-01  9.59011721e-01  9.86771820e-01  1.01935594e+00
  1.03704672e+00  1.05353554e+00  1.05373598e+00  1.06585611e+00
  1.07737211e+00  1.09963630e+00  1.13327600e+00  1.15490212e+00
  1.16016952e+00  1.25568231e+00  1.28097612e+00  1.32430609e+00
  1.36082527e+00  1.38422341e+00  1.39012243e+00  1.40273357e+00
  1.42176272e+00  1.43489049e+00  1.64365831e+00  1.73798855e+00
  1.78619103e+00  1.82705107e+00  1.85808639e+00  1.86300685e+00
  1.86413773e+00  1.92219181e+00  1.98043934e+00  2.04758912e+00
  2.06694794e+00  2.07460452e+00  2.08890684e+00  2.11648179e+00
  2.18372144e+00  2.21804223e+00  2.25858574e+00  2.28160930e+00
  2.34802880e+00  2.36878272e+00  2.48249359e+00  2.51339501e+00
  2.60010455e+00  2.60676380e+00  2.65702045e+00  2.68248599e+00
  2.71455159e+00  2.78784672e+00  2.97152250e+00  3.35647284e+00]
nelec by numeric integration = 68.00006641514713
    CPU time for vxc      5.92 sec, wall time      0.22 sec
E1 = -1777.4111897036382  Ecoul = 719.3308576496777  Exc = -70.4913474359814
cycle= 14 E= -748.091349513657  delta_E= -6.81e-10  |g|= 8.71e-06  |ddm|= 9.95e-05
    CPU time for cycle= 14      6.43 sec, wall time      0.23 sec
  HOMO = -0.149873038359371  LUMO = -0.1153964636597
  mo_energy =
[-1.01335377e+02 -1.44814930e+01 -1.03054814e+01 -1.03042662e+01
 -1.02724039e+01 -1.02690422e+01 -1.02685471e+01 -1.02266151e+01
 -9.26410785e+00 -7.02208173e+00 -7.02093934e+00 -7.02045259e+00
 -1.07246672e+00 -8.95453868e-01 -8.51587363e-01 -7.62761590e-01
 -7.27289013e-01 -6.94096303e-01 -6.12254291e-01 -5.95977707e-01
 -5.72651547e-01 -5.48914831e-01 -5.18987778e-01 -5.12861216e-01
 -5.12384335e-01 -4.47064357e-01 -4.34997349e-01 -4.24171709e-01
 -4.19733765e-01 -3.59157856e-01 -3.41432970e-01 -1.52929721e-01
 -1.49987229e-01 -1.49873038e-01 -1.15396464e-01 -8.81544578e-02
  2.83387293e-02  6.04051597e-02  7.67830132e-02  8.44012739e-02
  1.05392242e-01  1.23614105e-01  1.32327982e-01  1.43078829e-01
  1.59943329e-01  1.78601471e-01  2.18872483e-01  2.33273282e-01
  2.44490338e-01  2.66483582e-01  3.70332275e-01  3.88579591e-01
  4.29770380e-01  4.58773018e-01  4.70380623e-01  4.85414494e-01
  4.98627018e-01  5.17060153e-01  5.24035305e-01  5.34429011e-01
  5.37345895e-01  5.52606206e-01  5.64553992e-01  5.67153688e-01
  5.93782062e-01  5.96185792e-01  5.99016407e-01  6.61702387e-01
  6.67064957e-01  7.17859607e-01  7.41512398e-01  7.59107173e-01
  7.72452591e-01  7.87860157e-01  7.94069752e-01  7.96669673e-01
  8.49214872e-01  8.57832703e-01  8.82300550e-01  9.02032583e-01
  9.14914388e-01  9.59011022e-01  9.86772078e-01  1.01935602e+00
  1.03704645e+00  1.05353944e+00  1.05373986e+00  1.06585976e+00
  1.07737517e+00  1.09963648e+00  1.13327694e+00  1.15490176e+00
  1.16016894e+00  1.25568341e+00  1.28097536e+00  1.32430529e+00
  1.36082500e+00  1.38422284e+00  1.39012206e+00  1.40273391e+00
  1.42176232e+00  1.43488952e+00  1.64365755e+00  1.73798851e+00
  1.78619063e+00  1.82705019e+00  1.85808612e+00  1.86300681e+00
  1.86413741e+00  1.92219188e+00  1.98043930e+00  2.04758874e+00
  2.06694731e+00  2.07460407e+00  2.08890674e+00  2.11648112e+00
  2.18372159e+00  2.21804199e+00  2.25858535e+00  2.28160945e+00
  2.34802856e+00  2.36878196e+00  2.48249333e+00  2.51339481e+00
  2.60010422e+00  2.60676308e+00  2.65701999e+00  2.68248552e+00
  2.71455141e+00  2.78784612e+00  2.97152163e+00  3.35647225e+00]
nelec by numeric integration = 68.00006641509174
    CPU time for vxc      5.82 sec, wall time      0.21 sec
E1 = -1777.4111485145932  Ecoul = 719.3308098709505  Exc = -70.49134084613716
Extra cycle  E= -748.091349513495  delta_E= 1.62e-10  |g|= 2.2e-05  |ddm|= 6.21e-05
    CPU time for scf_cycle    120.15 sec, wall time      4.44 sec
    CPU time for SCF    120.15 sec, wall time      4.44 sec
converged SCF energy = -748.091349513495
Converting <class 'pyscf.dft.rks.RKS'> to RHF


******** <class 'pyscf.tdscf.rks.TDA'> for <class 'pyscf.dft.rks.RKS'> ********
nstates = 10 singlet
wfnsym = None
conv_tol = 1e-09
eigh lindep = 1e-12
eigh level_shift = 0
eigh max_space = 50
eigh max_cycle = 100
chkfile = /scratch/global/yangjunjie/tmpw1pkkhlz
max_memory 256000 MB (current use 604 MB)


davidson 0 10  |r|= 0.115  e= [0.0131576  0.0152775  0.04355203 0.04392254 0.04561936 0.06921506
 0.15850934 0.15954251 0.16778223 0.19221607]  max|de|= 0.192  lindep=    1
Old state -> New state
    3     ->     2 
    2     ->     3 
davidson 1 20  |r|= 0.019  e= [0.0130778  0.01503346 0.04291534 0.0435422  0.04557906 0.05456094
 0.15796062 0.15893621 0.16529841 0.19214034]  max|de|= -0.0147  lindep= 0.832
davidson 2 30  |r|= 0.0105  e= [0.01307764 0.01502807 0.04289796 0.04354196 0.04557856 0.05415298
 0.15780328 0.15879231 0.16489131 0.19213093]  max|de|= -0.000408  lindep= 0.899
root 0 converged  |r|= 2.41e-06  e= 0.013077643033310103  max|de|= -6.77e-10
davidson 3 40  |r|= 0.00352  e= [0.01307764 0.01502803 0.04289627 0.04354196 0.04557855 0.05412058
 0.15778577 0.15877726 0.16473049 0.19213044]  max|de|= -0.000161  lindep= 0.85
root 1 converged  |r|= 1.39e-06  e= 0.015028033122975074  max|de|= -1.45e-10
root 3 converged  |r|= 7.86e-07  e= 0.04354195546531504  max|de|= -2.21e-11
root 4 converged  |r|= 7.88e-07  e= 0.04557855110231238  max|de|= -1.38e-10
davidson 4 49  |r|= 0.00171  e= [0.01307764 0.01502803 0.04289615 0.04354196 0.04557855 0.05411974
 0.15778419 0.15877417 0.16470853 0.19213038]  max|de|= -2.2e-05  lindep= 0.825
davidson 5 55  |r|= 0.000867  e= [0.01307764 0.01502803 0.04289615 0.04354196 0.04557855 0.05411972
 0.15778397 0.15877357 0.16470429 0.19213034]  max|de|= -4.23e-06  lindep= 0.824
root 2 converged  |r|= 7.78e-07  e= 0.04289614524686741  max|de|= -3.12e-11
root 5 converged  |r|= 5.04e-06  e= 0.05411971507433475  max|de|= -7.1e-10
davidson 6 61  |r|= 0.000452  e= [0.01307764 0.01502803 0.04289615 0.04354196 0.04557855 0.05411972
 0.15778395 0.1587735  0.16470298 0.19213029]  max|de|= -1.31e-06  lindep= 0.702
davidson 7 65  |r|= 0.000319  e= [0.01307764 0.01502803 0.04289615 0.04354196 0.04557855 0.05411972
 0.15778394 0.15877349 0.16470253 0.19213022]  max|de|= -4.49e-07  lindep= 0.789
root 6 converged  |r|= 5.93e-06  e= 0.1577839417218435  max|de|= -4.36e-10
davidson 8 69  |r|= 0.000108  e= [0.01307764 0.01502803 0.04289615 0.04354196 0.04557855 0.05411972
 0.15778394 0.15877349 0.16470241 0.19213021]  max|de|= -1.17e-07  lindep= 0.811
root 7 converged  |r|= 1.68e-05  e= 0.1587734854817805  max|de|= 1.94e-16
davidson 9 10  |r|= 0.000108  e= [0.01307764 0.01502803 0.04289615 0.04354196 0.04557855 0.05411972
 0.15778394 0.15877349 0.16470241 0.19213021]  max|de|= -5.55e-16  lindep=    1
davidson 10 12  |r|= 5.45e-05  e= [0.01307764 0.01502803 0.04289615 0.04354196 0.04557855 0.05411972
 0.15778394 0.15877349 0.1647024  0.19213021]  max|de|= -1.27e-08  lindep= 0.72
root 9 converged  |r|= 1.1e-05  e= 0.19213020863570734  max|de|= -5.8e-10
davidson 11 14  |r|= 1.88e-05  e= [0.01307764 0.01502803 0.04289615 0.04354196 0.04557855 0.05411972
 0.15778394 0.15877349 0.1647024  0.19213021]  max|de|= -3.45e-09  lindep= 0.893
root 8 converged  |r|= 1.33e-05  e= 0.1647023968654026  max|de|= -8.05e-10
converged 12 15  |r|= 1.65e-05  e= [0.01307764 0.01502803 0.04289615 0.04354196 0.04557855 0.05411972
 0.15778394 0.15877349 0.1647024  0.19213021]  max|de|= -8.05e-10
    CPU time for TDA    230.32 sec, wall time      8.37 sec
Excited State energies (eV)
[0.35586079 0.40893361 1.16726357 1.18483696 1.24025555 1.47267246
 4.29351975 4.3204466  4.4817805  5.22812927]
Converting <class 'pyscf.dft.rks.RKS'> to RHF


******** <class 'pyscf.tdscf.rks.TDDFT'> for <class 'pyscf.dft.rks.RKS'> ********
nstates = 10 singlet
wfnsym = None
conv_tol = 1e-09
eigh lindep = 1e-12
eigh level_shift = 0
eigh max_space = 50
eigh max_cycle = 100
chkfile = /scratch/global/yangjunjie/tmpw1pkkhlz
max_memory 256000 MB (current use 634 MB)


davidson 0 10  |r|= 0.172  e= [0.0131576  0.0152775  0.04355203 0.04392254 0.04561936 0.06921506
 0.15850934 0.15954251 0.16778223 0.19221607]  max|de|= 0.192  lindep=    1
Old state -> New state
    3     ->     0 
    0     ->     1 
    1     ->     2 
    1     ->     3 
    5     ->     4 
    3     ->     5 
    2     ->     6 
    4     ->     7 
    5     ->     8 
    6     ->     9 
davidson 1 20  |r|= 0.985  e= [0.00641203 0.01280307 0.01513417 0.02094324 0.03452668 0.04330266
 0.04353794 0.0455683  0.09687829 0.15690491]  max|de|= -0.0375  lindep= 0.0928
Old state -> New state
    2     ->     3 
    1     ->     4 
    4     ->     5 
    5     ->     6 
    6     ->     7 
    7     ->     8 
    5     ->     9 
davidson 2 30  |r|= 1.43  e= [0.00442693 0.01294597 0.01471909 0.02031856 0.0322397  0.034847
 0.04324219 0.04354013 0.04557163 0.05674416]  max|de|= 0.0194  lindep= 0.0794
Old state -> New state
    1     ->     0 
    2     ->     1 
    3     ->     2 
    5     ->     3 
    6     ->     4 
    7     ->     5 
    8     ->     6 
    3     ->     7 
    0     ->     8 
    5     ->     9 
davidson 3 40  |r|= 1.09  e= [0.01290514 0.01479287 0.02701024 0.03487357 0.04080134 0.04354056
 0.04557303 0.15772068 0.15841371 0.16382436]  max|de|= 0.154  lindep= 0.167
Old state -> New state
    3     ->     2 
    2     ->     3 
    3     ->     4 
    4     ->     5 
    5     ->     6 
    6     ->     7 
    3     ->     8 
    7     ->     9 
davidson 4 50  |r|= 1.12  e= [0.01290453 0.01478938 0.0177388  0.02990978 0.03500493 0.04269745
 0.04354054 0.04557288 0.11559241 0.157771  ]  max|de|= 0.0807  lindep= 0.0578
Old state -> New state
    4     ->     2 
    4     ->     3 
    5     ->     4 
    6     ->     5 
    7     ->     6 
    3     ->     7 
    2     ->     8 
davidson 5 60  |r|= 1.27  e= [0.01290462 0.01478912 0.01592001 0.03484833 0.04272643 0.04354053
 0.04557286 0.07990358 0.10928249 0.15776753]  max|de|= 0.0915  lindep= 0.028
Old state -> New state
    3     ->     2 
    3     ->     8 
root 5 converged  |r|= 1.21e-06  e= 0.04354053404969381  max|de|= 2.11e-10
davidson 6 70  |r|= 1.15  e= [0.01290462 0.01478912 0.01924795 0.03512815 0.04257881 0.04354053
 0.04557286 0.06141086 0.12402333 0.15773412]  max|de|= 0.0892  lindep= 0.138
Old state -> New state
    3     ->     2 
    4     ->     3 
    5     ->     4 
    6     ->     5 
    3     ->     6 
    3     ->     7 
    9     ->     8 
    2     ->     9 
root 0 converged  |r|= 3.26e-07  e= 0.012904620839012625  max|de|= 1.61e-10
root 5 converged  |r|= 4.08e-07  e= 0.0455728625053389  max|de|= 2.66e-12
davidson 7 77  |r|= 1.19  e= [0.01290462 0.01478912 0.03508489 0.04258456 0.04354053 0.04557286
 0.06944001 0.12107654 0.15775376 0.1587576 ]  max|de|= 0.14  lindep= 0.151
root 1 converged  |r|= 1.34e-07  e= 0.014789115864061812  max|de|= -1.91e-17
davidson 8 10  |r|= 1.19  e= [0.01290462 0.01478912 0.03508489 0.04258456 0.04354053 0.04557286
 0.06944001 0.12107654 0.15775376 0.1587576 ]  max|de|= -2.08e-16  lindep= 0.425
Old state -> New state
    2     ->     3 
    2     ->     4 
    3     ->     5 
    4     ->     6 
    5     ->     7 
    2     ->     8 
    2     ->     9 
davidson 9 16  |r|= 0.977  e= [0.01290462 0.01478912 0.03090222 0.03284939 0.03543237 0.0425687
 0.04354053 0.04557286 0.04910018 0.11311304]  max|de|= 0.078  lindep= 0.256
Old state -> New state
    4     ->     0 
    0     ->     1 
    1     ->     2 
    4     ->     3 
    2     ->     4 
    3     ->     8 
    2     ->     9 
davidson 10 22  |r|= 0.795  e= [0.00292915 0.01290462 0.01478912 0.03509392 0.03804393 0.04258428
 0.04354053 0.04557286 0.07798658 0.15774958]  max|de|= 0.127  lindep= 0.153
Old state -> New state
    1     ->     0 
    2     ->     1 
    3     ->     2 
    5     ->     3 
    6     ->     4 
    7     ->     5 
    8     ->     6 
    3     ->     7 
    9     ->     8 
davidson 11 28  |r|= 1.38  e= [0.01290462 0.01478912 0.03508313 0.04258132 0.04354053 0.04557286
 0.0764441  0.12148353 0.15774556 0.15877757]  max|de|= 0.0864  lindep= 0.211
Old state -> New state
    2     ->     3 
    3     ->     4 
    4     ->     5 
    5     ->     6 
    3     ->     7 
root 6 converged  |r|= 2.95e-07  e= 0.0455728627590665  max|de|= -2.05e-12
davidson 12 34  |r|= 1.24  e= [0.01290462 0.01478912 0.02669033 0.03508428 0.04257956 0.04354053
 0.04557286 0.07623854 0.15774699 0.15878189]  max|de|= 0.0337  lindep= 0.133
Old state -> New state
    3     ->     2 
    3     ->     7 
davidson 13 40  |r|= 0.925  e= [0.01290462 0.01478912 0.03174515 0.03508176 0.0425816  0.04354053
 0.04557286 0.12393396 0.1577467  0.15876081]  max|de|= 0.0888  lindep= 0.133
Old state -> New state
    3     ->     2 
    4     ->     3 
    5     ->     4 
    3     ->     5 
    4     ->     7 
    7     ->     8 
    8     ->     9 
davidson 14 46  |r|= 0.914  e= [0.01290462 0.01478912 0.0350815  0.04258172 0.04354053 0.04504136
 0.04557286 0.10223038 0.14084726 0.15774898]  max|de|= 0.0596  lindep= 0.164
Old state -> New state
    6     ->     5 
    2     ->     6 
    2     ->     7 
    9     ->     8 
    8     ->     9 
davidson 15 52  |r|= 1.06  e= [0.01290462 0.01478912 0.03508139 0.04258175 0.04354053 0.04557286
 0.09453585 0.1069876  0.15774571 0.15875359]  max|de|= 0.0719  lindep= 0.151
Old state -> New state
    8     ->     6 
    9     ->     7 
    6     ->     8 
    6     ->     9 
davidson 16 57  |r|= 0.619  e= [0.01290462 0.01478912 0.0350814  0.04258174 0.04354053 0.04557286
 0.15774509 0.15875143 0.21511426 0.22639654]  max|de|= 0.132  lindep= 0.347
Old state -> New state
    2     ->     3 
    3     ->     4 
    4     ->     5 
    5     ->     6 
    6     ->     7 
    7     ->     8 
    8     ->     9 
root 4 converged  |r|= 7.93e-07  e= 0.04258174280422933  max|de|= 3.66e-10
davidson 17 61  |r|= 0.305  e= [0.01290462 0.01478912 0.03508141 0.03633654 0.04258174 0.04354053
 0.04557286 0.15774528 0.15875237 0.18341163]  max|de|= -0.0317  lindep= 0.116
Old state -> New state
    4     ->     3 
    5     ->     4 
    6     ->     5 
    9     ->     6 
    3     ->     9 
davidson 18 66  |r|= 1.12  e= [0.01290462 0.01478912 0.0350814  0.04258174 0.04354053 0.04557286
 0.13033936 0.15774521 0.15875212 0.18560117]  max|de|= 0.149  lindep= 0.273
Old state -> New state
    1     ->     0 
    0     ->     1 
    1     ->     2 
    2     ->     3 
    3     ->     4 
    4     ->     5 
    5     ->     6 
root 3 converged  |r|= 1.3e-08  e= 0.03508139949548524  max|de|= -7.81e-11
davidson 19 70  |r|= 1.14  e= [0.00774802 0.01290462 0.01478912 0.0350814  0.04258174 0.04354053
 0.04557286 0.15774538 0.15874998 0.1774724 ]  max|de|= -0.00813  lindep= 0.108
Old state -> New state
    4     ->     5 
    5     ->     6 
    6     ->     7 
    0     ->     8 
    7     ->     9 
davidson 20 74  |r|= 1.03  e= [0.00473203 0.01290462 0.01478912 0.0350814  0.04258175 0.04315546
 0.04354054 0.04557286 0.09613021 0.15774532]  max|de|= 0.0884  lindep= 0.0472
Old state -> New state
    1     ->     0 
    2     ->     1 
    3     ->     2 
    4     ->     3 
    6     ->     4 
    7     ->     5 
    3     ->     6 
    9     ->     7 
    0     ->     9 
davidson 21 79  |r|= 0.953  e= [0.01290462 0.01478912 0.0350814  0.04258174 0.04354053 0.04557286
 0.11734358 0.15774528 0.15875056 0.17373474]  max|de|= 0.169  lindep= 0.248
root 3 converged  |r|= 8.63e-08  e= 0.04258174260497227  max|de|= 6.94e-17
davidson 22 10  |r|= 0.953  e= [0.01290462 0.01478912 0.0350814  0.04258174 0.04354053 0.04557286
 0.11734358 0.15774528 0.15875056 0.17373474]  max|de|= 3e-15  lindep= 0.427
Old state -> New state
    2     ->     6 
davidson 23 14  |r|= 1.03  e= [0.01290462 0.01478912 0.0350814  0.04258174 0.04354053 0.04557286
 0.05753437 0.15774534 0.15875027 0.17505402]  max|de|= 0.0225  lindep= 0.253
davidson 24 18  |r|= 1.04  e= [0.01290462 0.01478912 0.0350814  0.04258174 0.04354053 0.04557286
 0.15254259 0.15774549 0.15874767 0.16668329]  max|de|= 0.095  lindep= 0.493
Old state -> New state
    0     ->     1 
    1     ->     2 
    2     ->     3 
    3     ->     4 
    4     ->     5 
    5     ->     6 
    6     ->     7 
    7     ->     8 
    8     ->     9 
davidson 25 22  |r|= 0.906  e= [0.01106332 0.01290462 0.01478912 0.0350814  0.04258174 0.04354053
 0.04557286 0.13930382 0.15774545 0.15875136]  max|de|= -0.0132  lindep= 0.235
Old state -> New state
    1     ->     0 
    2     ->     1 
    3     ->     2 
    3     ->     7 
    3     ->     8 
    8     ->     9 
davidson 26 26  |r|= 1.15  e= [0.01290462 0.01478912 0.0350814  0.03732867 0.04258174 0.04354053
 0.04557286 0.0525987  0.1253593  0.15774547]  max|de|= 0.0903  lindep= 0.184
Old state -> New state
    2     ->     0 
    0     ->     1 
    1     ->     2 
    2     ->     3 
    9     ->     7 
    8     ->     9 
davidson 27 30  |r|= 0.455  e= [0.01141557 0.01290462 0.01478912 0.0350814  0.04258174 0.04354053
 0.04557286 0.15774542 0.15875079 0.16532057]  max|de|= 0.04  lindep= 0.177
Old state -> New state
    3     ->     4 
    4     ->     5 
    5     ->     6 
    6     ->     7 
    0     ->     8 
    3     ->     9 
root 4 converged  |r|= 2.12e-08  e= 0.03508139841988095  max|de|= -1.03e-10
root 5 converged  |r|= 5.29e-08  e= 0.042581742641328496  max|de|= -1.24e-10
davidson 28 35  |r|=  1.4  e= [0.00609606 0.01290462 0.01478912 0.0306959  0.0350814  0.04258174
 0.04354053 0.04557286 0.1017302  0.1137206 ]  max|de|= 0.0903  lindep= 0.0716
Old state -> New state
    3     ->     0 
    4     ->     3 
    5     ->     4 
    6     ->     5 
    7     ->     6 
    3     ->     7 
    0     ->     8 
root 1 converged  |r|= 6.19e-08  e= 0.012904620794691965  max|de|= 2.91e-11
davidson 29 39  |r|= 1.05  e= [0.00130877 0.01290462 0.01478912 0.0350814  0.04258174 0.04354053
 0.04557286 0.08403072 0.13031434 0.15774544]  max|de|= 0.124  lindep= 0.112
Old state -> New state
    1     ->     0 
    2     ->     1 
    3     ->     2 
    4     ->     3 
    5     ->     4 
    6     ->     5 
    9     ->     6 
    8     ->     7 
    7     ->     8 
    7     ->     9 
root 2 converged  |r|= 5.95e-09  e= 0.03508139966038691  max|de|= 6.91e-11
davidson 30 43  |r|= 0.595  e= [0.01290462 0.01478912 0.0350814  0.04258174 0.04354053 0.04557286
 0.15774542 0.15875139 0.16433812 0.21660885]  max|de|= 0.133  lindep= 0.349
Old state -> New state
    2     ->     3 
    3     ->     4 
    4     ->     5 
    5     ->     6 
    6     ->     7 
    7     ->     8 
    8     ->     9 
davidson 31 47  |r|= 0.206  e= [0.01290462 0.01478912 0.03073871 0.0350814  0.04258174 0.04354053
 0.04557286 0.15774542 0.15875119 0.16394315]  max|de|= -0.00434  lindep= 0.122
Old state -> New state
    3     ->     2 
    4     ->     3 
    5     ->     4 
    6     ->     5 
    7     ->     6 
    8     ->     7 
    9     ->     8 
davidson 32 51  |r|= 0.521  e= [0.01290462 0.01478912 0.0350814  0.04258174 0.04354053 0.04557286
 0.15774541 0.15875715 0.16038686 0.17072705]  max|de|= 0.00678  lindep= 0.363
davidson 33 55  |r|= 0.563  e= [0.01290462 0.01478912 0.0350814  0.04258174 0.04354053 0.04557286
 0.1577454  0.15875103 0.16337181 0.18561126]  max|de|= 0.0149  lindep= 0.384
Old state -> New state
    2     ->     0 
    0     ->     1 
    1     ->     2 
    2     ->     3 
    3     ->     4 
    4     ->     5 
    5     ->     6 
    8     ->     7 
    6     ->     8 
    7     ->     9 
davidson 34 59  |r|= 0.996  e= [0.00168723 0.01290462 0.01478912 0.0350814  0.04258174 0.04354053
 0.04557286 0.15428322 0.15774542 0.15875073]  max|de|= -0.0334  lindep= 0.121
Old state -> New state
    1     ->     0 
    2     ->     1 
    3     ->     2 
    4     ->     3 
    5     ->     4 
    6     ->     5 
    3     ->     6 
    8     ->     7 
    9     ->     8 
    7     ->     9 
davidson 35 63  |r|= 1.09  e= [0.01290462 0.01478912 0.0350814  0.04258174 0.04354053 0.04557286
 0.10153736 0.15774542 0.15875055 0.16350409]  max|de|= 0.0665  lindep= 0.184
Old state -> New state
    7     ->     6 
    8     ->     7 
    9     ->     8 
davidson 36 67  |r|= 0.758  e= [0.01290462 0.01478912 0.0350814  0.04258174 0.04354053 0.04557286
 0.15774542 0.15875081 0.16339646 0.18278236]  max|de|= 0.0193  lindep= 0.366
root 6 converged  |r|= 3.15e-07  e= 0.15774541623546529  max|de|= 6.59e-10
davidson 37 71  |r|= 0.105  e= [0.01290462 0.01478912 0.0350814  0.04258174 0.04354053 0.04557286
 0.15774542 0.15875066 0.16353614 0.19503805]  max|de|= 0.0123  lindep= 0.515
davidson 38 74  |r|= 0.653  e= [0.01290462 0.01478912 0.0350814  0.04258174 0.04354053 0.04557286
 0.15774542 0.1587507  0.16352886 0.18656934]  max|de|= -0.00847  lindep= 0.403
davidson 39 77  |r|= 0.506  e= [0.01290462 0.01478912 0.0350814  0.04258174 0.04354053 0.04557286
 0.15774542 0.1587507  0.16352636 0.19007247]  max|de|= 0.0035  lindep= 0.467
root 7 converged  |r|= 1.02e-05  e= 0.15875069504360412  max|de|= 3.33e-16
davidson 40 10  |r|= 0.506  e= [0.01290462 0.01478912 0.0350814  0.04258174 0.04354053 0.04557286
 0.15774542 0.1587507  0.16352636 0.19007247]  max|de|= 1.17e-15  lindep= 0.847
davidson 41 12  |r|= 0.197  e= [0.01290462 0.01478912 0.0350814  0.04258174 0.04354053 0.04557286
 0.15774542 0.15875069 0.16353041 0.21071324]  max|de|= 0.0206  lindep= 0.526
Old state -> New state
    2     ->     0 
    0     ->     1 
    1     ->     2 
    2     ->     3 
    3     ->     4 
    4     ->     5 
    5     ->     6 
    6     ->     7 
    7     ->     8 
    8     ->     9 
davidson 42 15  |r|= 0.477  e= [0.00229931 0.01290462 0.01478912 0.0350814  0.04258174 0.04354053
 0.04557286 0.15774542 0.15875068 0.16353424]  max|de|= -0.0328  lindep= 0.316
Old state -> New state
    1     ->     0 
    2     ->     1 
    3     ->     2 
    0     ->     7 
    7     ->     8 
    8     ->     9 
davidson 43 18  |r|= 0.883  e= [0.01290462 0.01478912 0.02657288 0.0350814  0.04258174 0.04354053
 0.04557286 0.08833439 0.15774542 0.15875069]  max|de|= 0.086  lindep= 0.195
Old state -> New state
    2     ->     0 
    0     ->     1 
    1     ->     2 
    2     ->     3 
    3     ->     4 
    4     ->     5 
    5     ->     6 
    6     ->     7 
    2     ->     8 
    8     ->     9 
davidson 44 21  |r|= 0.529  e= [0.00780841 0.01290462 0.01478912 0.02219747 0.0350814  0.04258174
 0.04354053 0.04557286 0.07330637 0.15774542]  max|de|= 0.0467  lindep= 0.15
Old state -> New state
    1     ->     0 
    2     ->     1 
    4     ->     2 
    5     ->     3 
    5     ->     4 
    6     ->     5 
    7     ->     6 
    8     ->     7 
    9     ->     8 
    3     ->     9 
davidson 45 24  |r|= 0.677  e= [0.01290462 0.01478912 0.0350814  0.04258174 0.04316758 0.04354053
 0.04557286 0.14449596 0.15774542 0.15875069]  max|de|= 0.137  lindep= 0.0853
Old state -> New state
    5     ->     4 
    6     ->     5 
    8     ->     6 
    9     ->     7 
    7     ->     8 
    7     ->     9 
davidson 46 27  |r|= 0.207  e= [0.01290462 0.01478912 0.0350814  0.04258174 0.04354053 0.04557286
 0.15774542 0.15875069 0.16352836 0.19501703]  max|de|= 0.0505  lindep= 0.533
root 7 converged  |r|= 5.66e-07  e= 0.15875068730852146  max|de|= -4.34e-10
davidson 47 30  |r|= 0.0509  e= [0.01290462 0.01478912 0.0350814  0.04258174 0.04354053 0.04557286
 0.15774542 0.15875069 0.16352732 0.19775567]  max|de|= 0.00274  lindep= 0.334
Old state -> New state
    2     ->     3 
    3     ->     4 
    4     ->     5 
    5     ->     6 
    2     ->     7 
    6     ->     8 
    7     ->     9 
davidson 48 32  |r|= 0.872  e= [0.01290462 0.01478912 0.02556586 0.0350814  0.04258174 0.04354053
 0.04557286 0.06170788 0.15774542 0.15875069]  max|de|= 0.0266  lindep= 0.176
davidson 49 34  |r|= 0.972  e= [0.01290462 0.01478912 0.02560827 0.0350814  0.04258174 0.04354053
 0.04557286 0.12293898 0.15774542 0.15875069]  max|de|= 0.0612  lindep= 0.00327
Old state -> New state
    2     ->     0 
    0     ->     1 
    1     ->     2 
    4     ->     7 
davidson 50 36  |r|= 1.02  e= [0.01124947 0.01290462 0.01478912 0.0350814  0.04258174 0.04354053
 0.04557286 0.0572513  0.15774542 0.15875069]  max|de|= 0.0147  lindep= 0.108
Old state -> New state
    1     ->     0 
    2     ->     1 
    3     ->     2 
    4     ->     3 
    5     ->     4 
    6     ->     5 
    0     ->     6 
    8     ->     7 
    9     ->     8 
    3     ->     9 
davidson 51 38  |r|= 0.923  e= [0.01290462 0.01478912 0.0350814  0.04258174 0.04354053 0.04557286
 0.10737593 0.15774542 0.15875069 0.16352766]  max|de|= 0.128  lindep= 0.249
Old state -> New state
    6     ->     0 
    0     ->     1 
    1     ->     2 
    2     ->     3 
    3     ->     4 
    4     ->     5 
    5     ->     6 
davidson 52 40  |r|= 0.86  e= [0.00114248 0.01290462 0.01478912 0.0350814  0.04258174 0.04354053
 0.04557286 0.15774542 0.15875069 0.16352748]  max|de|= -0.106  lindep= 0.121
Old state -> New state
    1     ->     0 
    2     ->     1 
    3     ->     2 
    4     ->     3 
    5     ->     4 
    6     ->     5 
    7     ->     6 
    8     ->     7 
    9     ->     8 
    0     ->     9 
davidson 53 42  |r|= 0.43  e= [0.01290462 0.01478912 0.0350814  0.04258174 0.04354053 0.04557286
 0.15774542 0.15875069 0.16352773 0.19057625]  max|de|= 0.189  lindep= 0.358
Old state -> New state
    2     ->     6 
    6     ->     7 
    7     ->     8 
    8     ->     9 
davidson 54 44  |r|= 0.859  e= [0.01290462 0.01478912 0.0350814  0.04258174 0.04354053 0.04557286
 0.11049753 0.15774542 0.15875069 0.16352759]  max|de|= 0.0754  lindep= 0.269
Old state -> New state
    3     ->     6 
davidson 55 46  |r|= 1.17  e= [0.01290462 0.01478912 0.0350814  0.04258174 0.04354053 0.04557286
 0.0714715  0.15774542 0.15875069 0.16352771]  max|de|= 0.0289  lindep= 0.232
Old state -> New state
    7     ->     6 
    8     ->     7 
    9     ->     8 
    6     ->     9 
davidson 56 48  |r|= 0.0447  e= [0.01290462 0.01478912 0.0350814  0.04258174 0.04354053 0.04557286
 0.15774542 0.15875069 0.16352765 0.19443274]  max|de|= 0.123  lindep= 0.527
Old state -> New state
    0     ->     1 
    1     ->     2 
    2     ->     3 
    3     ->     4 
    4     ->     5 
    5     ->     6 
    6     ->     7 
    7     ->     8 
    8     ->     9 
davidson 57 50  |r|= 0.889  e= [0.00763061 0.01290462 0.01478912 0.0350814  0.04258174 0.04354053
 0.04557286 0.15774542 0.15875069 0.16352767]  max|de|= -0.00527  lindep= 0.114
Old state -> New state
    1     ->     0 
    2     ->     1 
    3     ->     2 
    4     ->     3 
    5     ->     4 
    6     ->     5 
    0     ->     6 
davidson 58 52  |r|=  1.1  e= [0.01290462 0.01478912 0.0350814  0.04258174 0.04354053 0.04557286
 0.06202848 0.15774542 0.15875069 0.16352762]  max|de|= 0.0544  lindep= 0.186
Old state -> New state
    7     ->     6 
    8     ->     7 
    9     ->     8 
    6     ->     9 
davidson 59 54  |r|= 0.509  e= [0.01290462 0.01478912 0.0350814  0.04258174 0.04354053 0.04557286
 0.15774542 0.15875069 0.16352771 0.18944896]  max|de|= 0.127  lindep= 0.58
davidson 60 56  |r|= 0.0173  e= [0.01290462 0.01478912 0.0350814  0.04258174 0.04354053 0.04557286
 0.15774542 0.15875069 0.16352766 0.1938632 ]  max|de|= 0.00441  lindep= 0.543
Old state -> New state
    2     ->     3 
    3     ->     4 
    4     ->     5 
    5     ->     6 
    6     ->     7 
    7     ->     8 
    8     ->     9 
davidson 61 58  |r|= 0.252  e= [0.01290462 0.01478912 0.0350814  0.03960724 0.04258174 0.04354053
 0.04557286 0.15774542 0.15875069 0.16352768]  max|de|= 0.00453  lindep= 0.129
Old state -> New state
    4     ->     3 
    5     ->     4 
    6     ->     5 
    7     ->     6 
    8     ->     7 
    9     ->     8 
    3     ->     9 
davidson 62 60  |r|= 0.523  e= [0.01290462 0.01478912 0.0350814  0.04258174 0.04354053 0.04557286
 0.15774542 0.15875069 0.16352766 0.18310671]  max|de|= 0.143  lindep= 0.54
davidson 63 62  |r|= 0.0518  e= [0.01290462 0.01478912 0.0350814  0.04258174 0.04354053 0.04557286
 0.15774542 0.15875069 0.16352765 0.19279575]  max|de|= 0.00969  lindep= 0.669
root 8 converged  |r|= 5.81e-07  e= 0.16352765534217492  max|de|= 9.46e-10
davidson 64 64  |r|= 0.0678  e= [0.01290462 0.01478912 0.0350814  0.04258174 0.04354053 0.04557286
 0.15774542 0.15875069 0.16352766 0.19259826]  max|de|= -0.000197  lindep= 0.416
davidson 65 65  |r|= 0.046  e= [0.01290462 0.01478912 0.0350814  0.04258174 0.04354053 0.04557286
 0.15774542 0.15875069 0.16352765 0.19269626]  max|de|= 9.8e-05  lindep= 0.0829
davidson 66 66  |r|= 0.0174  e= [0.01290462 0.01478912 0.0350814  0.04258174 0.04354053 0.04557286
 0.15774542 0.15875069 0.16352765 0.19200884]  max|de|= -0.000687  lindep= 0.798
Old state -> New state
    2     ->     0 
    0     ->     1 
    1     ->     2 
    2     ->     3 
    3     ->     4 
    4     ->     5 
    5     ->     6 
    6     ->     7 
    7     ->     8 
    8     ->     9 
davidson 67 67  |r|= 0.947  e= [0.00250647 0.01290462 0.01478912 0.0350814  0.04258174 0.04354053
 0.04557286 0.15774542 0.15875069 0.16352765]  max|de|= -0.0326  lindep= 0.128
Old state -> New state
    1     ->     0 
    2     ->     1 
    3     ->     2 
    4     ->     3 
    5     ->     4 
    6     ->     5 
    0     ->     6 
davidson 68 68  |r|= 1.29  e= [0.01290462 0.01478912 0.0350814  0.04258174 0.04354053 0.04557286
 0.1033493  0.15774542 0.15875069 0.16352765]  max|de|= 0.101  lindep= 0.182
Old state -> New state
    7     ->     6 
    8     ->     7 
    9     ->     8 
    6     ->     9 
davidson 69 69  |r|= 0.00901  e= [0.01290462 0.01478912 0.0350814  0.04258174 0.04354053 0.04557286
 0.15774542 0.15875069 0.16352765 0.19191296]  max|de|= 0.0886  lindep= 0.447
Old state -> New state
    8     ->     9 
davidson 70 70  |r|= 0.552  e= [0.01290462 0.01478912 0.0350814  0.04258174 0.04354053 0.04557286
 0.15774542 0.15875069 0.16126065 0.16352765]  max|de|= -0.00227  lindep= 0.46
Old state -> New state
    9     ->     8 
    8     ->     9 
davidson 71 72  |r|= 0.204  e= [0.01290462 0.01478912 0.0350814  0.04258174 0.04354053 0.04557286
 0.15774542 0.15875069 0.16352765 0.19173583]  max|de|= 0.0305  lindep= 0.552
root 8 converged  |r|= 4.1e-08  e= 0.163527654390153  max|de|= -2.95e-10
davidson 72 73  |r|= 0.0065  e= [0.01290462 0.01478912 0.0350814  0.04258174 0.04354053 0.04557286
 0.15774542 0.15875069 0.16352765 0.19183931]  max|de|= 0.000103  lindep= 0.724
Old state -> New state
    6     ->     7 
    7     ->     8 
    8     ->     9 
davidson 73 74  |r|= 0.847  e= [0.01290462 0.01478912 0.0350814  0.04258174 0.04354053 0.04557286
 0.13647449 0.15774542 0.15875069 0.16352765]  max|de|= -0.0213  lindep= 0.318
Old state -> New state
    7     ->     6 
    8     ->     7 
    9     ->     8 
    6     ->     9 
davidson 74 75  |r|= 0.0031  e= [0.01290462 0.01478912 0.0350814  0.04258174 0.04354053 0.04557286
 0.15774542 0.15875069 0.16352765 0.1918055 ]  max|de|= 0.0553  lindep= 0.854
Old state -> New state
    2     ->     6 
    6     ->     7 
    7     ->     8 
    8     ->     9 
davidson 75 76  |r|= 0.978  e= [0.01290462 0.01478912 0.0350814  0.04258174 0.04354053 0.04557286
 0.09777011 0.15774542 0.15875069 0.16352765]  max|de|= 0.0627  lindep= 0.247
Old state -> New state
    7     ->     6 
    8     ->     7 
    9     ->     8 
    6     ->     9 
davidson 76 77  |r|= 0.00189  e= [0.01290462 0.01478912 0.0350814  0.04258174 0.04354053 0.04557286
 0.15774542 0.15875069 0.16352765 0.19179691]  max|de|= 0.094  lindep=  0.9
davidson 77 10  |r|= 0.00189  e= [0.01290462 0.01478912 0.0350814  0.04258174 0.04354053 0.04557286
 0.15774542 0.15875069 0.16352765 0.19179691]  max|de|= 6.99e-15  lindep= 0.999
davidson 78 11  |r|= 0.00124  e= [0.01290462 0.01478912 0.0350814  0.04258174 0.04354053 0.04557286
 0.15774542 0.15875069 0.16352765 0.19179788]  max|de|= 9.66e-07  lindep= 0.268
davidson 79 12  |r|= 0.00826  e= [0.01290462 0.01478912 0.0350814  0.04258174 0.04354053 0.04557286
 0.15774542 0.15875069 0.16352765 0.19176174]  max|de|= -3.61e-05  lindep= 0.754
davidson 80 13  |r|= 0.00119  e= [0.01290462 0.01478912 0.0350814  0.04258174 0.04354053 0.04557286
 0.15774542 0.15875069 0.16352765 0.19179712]  max|de|= 3.54e-05  lindep= 0.875
Old state -> New state
    2     ->     6 
    6     ->     7 
    7     ->     8 
    8     ->     9 
davidson 81 14  |r|= 0.536  e= [0.01290462 0.01478912 0.0350814  0.04258174 0.04354053 0.04557286
 0.05137457 0.15774542 0.15875069 0.16352765]  max|de|= 0.0163  lindep= 0.255
davidson 82 15  |r|= 0.856  e= [0.01290462 0.01478912 0.0350814  0.04258174 0.04354053 0.04557286
 0.13623557 0.15774542 0.15875069 0.16352765]  max|de|= 0.0849  lindep= 0.461
Old state -> New state
    7     ->     6 
    8     ->     7 
    9     ->     8 
    6     ->     9 
davidson 83 16  |r|= 0.0147  e= [0.01290462 0.01478912 0.0350814  0.04258174 0.04354053 0.04557286
 0.15774542 0.15875069 0.16352765 0.19168938]  max|de|= 0.0555  lindep= 0.706
davidson 84 17  |r|= 0.00116  e= [0.01290462 0.01478912 0.0350814  0.04258174 0.04354053 0.04557286
 0.15774542 0.15875069 0.16352765 0.19179313]  max|de|= 0.000104  lindep= 0.639
Old state -> New state
    2     ->     6 
    6     ->     7 
    7     ->     8 
    8     ->     9 
davidson 85 18  |r|= 0.756  e= [0.01290462 0.01478912 0.0350814  0.04258174 0.04354053 0.04557286
 0.10544751 0.15774542 0.15875069 0.16352765]  max|de|= 0.0704  lindep= 0.322
Old state -> New state
    7     ->     6 
    8     ->     7 
    9     ->     8 
    6     ->     9 
davidson 86 19  |r|= 0.529  e= [0.01290462 0.01478912 0.0350814  0.04258174 0.04354053 0.04557286
 0.15774542 0.15875069 0.16352765 0.23810597]  max|de|= 0.133  lindep= 0.622
davidson 87 20  |r|= 0.00339  e= [0.01290462 0.01478912 0.0350814  0.04258174 0.04354053 0.04557286
 0.15774542 0.15875069 0.16352765 0.19180755]  max|de|= -0.0463  lindep= 0.689
Old state -> New state
    0     ->     2 
    2     ->     3 
    3     ->     4 
    4     ->     5 
    5     ->     6 
    6     ->     7 
    7     ->     8 
    8     ->     9 
davidson 88 21  |r|= 0.68  e= [0.01290462 0.01478912 0.02163792 0.0350814  0.04258174 0.04354053
 0.04557286 0.15774542 0.15875069 0.16352765]  max|de|= 0.00873  lindep= 0.152
Old state -> New state
    0     ->     1 
    1     ->     2 
davidson 89 22  |r|= 0.112  e= [0.01224339 0.01290462 0.01478912 0.0350814  0.04258174 0.04354053
 0.04557286 0.15774542 0.15875069 0.16352765]  max|de|= -0.000661  lindep= 0.191
Old state -> New state
    1     ->     0 
    2     ->     1 
    3     ->     2 
    4     ->     3 
    5     ->     4 
    6     ->     5 
    7     ->     6 
    8     ->     7 
    9     ->     8 
    3     ->     9 
davidson 90 23  |r|= 0.733  e= [0.01290462 0.01478912 0.0350814  0.04258174 0.04354053 0.04557286
 0.15774542 0.15875069 0.16352765 0.18800473]  max|de|= 0.153  lindep= 0.469
davidson 91 24  |r|= 0.303  e= [0.01290462 0.01478912 0.0350814  0.04258174 0.04354053 0.04557286
 0.15774542 0.15875069 0.16352765 0.18946465]  max|de|= 0.00146  lindep= 0.407
davidson 92 25  |r|= 0.00342  e= [0.01290462 0.01478912 0.0350814  0.04258174 0.04354053 0.04557286
 0.15774542 0.15875069 0.16352765 0.19178201]  max|de|= 0.00232  lindep= 0.575
Old state -> New state
    3     ->     6 
    6     ->     7 
    7     ->     8 
    8     ->     9 
davidson 93 26  |r|= 0.257  e= [0.01290462 0.01478912 0.0350814  0.04258174 0.04354053 0.04557286
 0.04597183 0.15774542 0.15875069 0.16352765]  max|de|= 0.00339  lindep= 0.28
Old state -> New state
    9     ->     6 
davidson 94 27  |r|= 0.827  e= [0.01290462 0.01478912 0.0350814  0.04258174 0.04354053 0.04557286
 0.14002832 0.15774542 0.15875069 0.16352765]  max|de|= -0.0235  lindep= 0.29
Old state -> New state
    7     ->     6 
    8     ->     7 
    9     ->     8 
    6     ->     9 
davidson 95 28  |r|= 0.00473  e= [0.01290462 0.01478912 0.0350814  0.04258174 0.04354053 0.04557286
 0.15774542 0.15875069 0.16352765 0.19176459]  max|de|= 0.0517  lindep= 0.626
davidson 96 29  |r|= 0.00284  e= [0.01290462 0.01478912 0.0350814  0.04258174 0.04354053 0.04557286
 0.15774542 0.15875069 0.16352765 0.1917658 ]  max|de|= 1.21e-06  lindep= 0.265
davidson 97 30  |r|= 0.624  e= [0.01290462 0.01478912 0.0350814  0.04258174 0.04354053 0.04557286
 0.15774542 0.15875069 0.16352765 0.18633304]  max|de|= -0.00543  lindep= 0.505
davidson 98 31  |r|= 0.00376  e= [0.01290462 0.01478912 0.0350814  0.04258174 0.04354053 0.04557286
 0.15774542 0.15875069 0.16352765 0.19178723]  max|de|= 0.00545  lindep= 0.433
davidson 99 32  |r|= 0.0017  e= [0.01290462 0.01478912 0.0350814  0.04258174 0.04354053 0.04557286
 0.15774542 0.15875069 0.16352765 0.19177676]  max|de|= -1.05e-05  lindep= 0.291
    CPU time for TDDFT   1029.27 sec, wall time     36.99 sec
TD-SCF states [9] not converged.
Excited State energies (eV)
[0.35115262 0.40243234 0.95461351 1.15870824 1.18479828 1.24010076
 4.29247142 4.31982623 4.44981413 5.21851152]
