 
:: initializing oneAPI environment ...
   slurm_script: BASH_VERSION = 4.2.46(1)-release
   args: Using "$@" for setvars.sh arguments: --force
:: advisor -- latest
:: ccl -- latest
:: clck -- latest
:: compiler -- latest
:: dal -- latest
:: debugger -- latest
:: dev-utilities -- latest
:: dnnl -- latest
:: dpcpp-ct -- latest
:: dpl -- latest
:: inspector -- latest
:: intelpython -- latest
:: ipp -- latest
:: ippcp -- latest
:: ipp -- latest
:: itac -- latest
:: mkl -- latest
:: mpi -- latest
:: tbb -- latest
:: vpl -- latest
:: vtune -- latest
:: oneAPI environment initialized ::
 
SLURM_CPUS_PER_TASK = 28
SLURM_MEM_PER_NODE = 127949
#INFO: **** input file is /home/yangjunjie/work/py-ch3-cl/work/step_-8/main.py ****
import sys
import pyscf
from pyscf import tdscf

def main(xyz_file, basis="631g*", xc="b3lyp", output="ene.out"):
    xyz = None

    with open(xyz_file, "r") as xyz:
        xyz = xyz.readlines()[2:]
        xyz = "".join(xyz)

    mol = pyscf.gto.Mole()
    mol.atom = xyz
    mol.basis = basis
    mol.verbose = 5
    mol.build()

    if xc is not None and xc != "hf":
        mf = pyscf.scf.RKS(mol)
        mf.xc = xc
        mf.kernel()
    else:
        mf = pyscf.scf.RHF(mol)
        mf.kernel()

    ene_mf = mf.e_tot

    tda = pyscf.tdscf.TDA(mf)
    tda.nstates = 10
    tda.kernel()
    ene_tda = tda.e[:5]
    dip_tda = tda.transition_dipole()[:5]

    rpa = pyscf.tdscf.RPA(mf)
    rpa.nstates = 10
    rpa.kernel()
    ene_rpa = rpa.e[:5]
    dip_rpa = rpa.transition_dipole()[:5]

    with open(output, "w") as f:
        f.write(f"RKS energy: {ene_mf: 12.8f}\n")
        f.write("TDA results:\n")
        for i, (ene, dip) in enumerate(zip(ene_tda, dip_tda)):
            f.write(f" {i:2d} {ene: 12.8f} {dip[0]: 12.8f} {dip[1]: 12.8f} {dip[2]: 12.8f}\n")
        
        f.write("\nRPA results:\n")
        for i, (ene, dip) in enumerate(zip(ene_rpa, dip_rpa)):
            f.write(f" {i:2d} {ene: 12.8f} {dip[0]: 12.8f} {dip[1]: 12.8f} {dip[2]: 12.8f}\n")

if __name__ == "__main__":
    xyz = sys.argv[1]
    main(xyz, basis="631g*", xc="b3lyp", output="out.log")
#INFO: ******************** input file end ********************


System: uname_result(system='Linux', node='pauling038', release='3.10.0-327.36.3.el7.x86_64', version='#1 SMP Thu Oct 20 04:56:07 EDT 2016', machine='x86_64')  Threads 28
Python 3.9.7 (default, Oct 27 2021, 01:23:21) 
[GCC 9.3.0]
numpy 1.21.2  scipy 1.6.2
Date: Tue Sep 27 23:12:40 2022
PySCF version 2.0.1
PySCF path  /home/yangjunjie/packages/pyscf/pyscf-main
GIT ORIG_HEAD 14b880cdc4bf7bb64f3989a147c0b04622efc498
GIT HEAD (branch master) 9d5b5bd309d1cc55fbd1a0ec76e26b5b0c7f76af

[ENV] PYSCF_MAX_MEMORY 127949
[ENV] PYSCF_TMPDIR /scratch/global/yangjunjie/
[CONFIG] conf_file /home/yangjunjie/.pyscf_conf.py
[INPUT] verbose = 5
[INPUT] max_memory = 127949 
[INPUT] num. atoms = 16
[INPUT] num. electrons = 68
[INPUT] charge = 0
[INPUT] spin (= nelec alpha-beta = 2S) = 0
[INPUT] symmetry False subgroup None
[INPUT] Mole.unit = angstrom
[INPUT]  1 C      0.000000010000   1.157637280000   1.078484480000 AA    0.000000018897   2.187617410786   2.038040296794 Bohr
[INPUT]  2 C      0.000000000000   1.201687170000   2.476589730000 AA    0.000000000000   2.270859638704   4.680076312611 Bohr
[INPUT]  3 C     -0.000000010000  -0.013270920000   3.151386640000 AA   -0.000000018897  -0.025078404221   5.955257662213 Bohr
[INPUT]  4 C     -0.000000010000  -1.213420170000   2.453283070000 AA   -0.000000018897  -2.293031795323   4.636033108332 Bohr
[INPUT]  5 C      0.000000000000  -1.143806040000   1.055818720000 AA    0.000000000000  -2.161480155223   1.995208217989 Bohr
[INPUT]  6 N      0.000000010000   0.014942490000   0.419546280000 AA    0.000000018897   0.028237213719   0.792827565780 Bohr
[INPUT]  7 C      0.000000000000   0.002250640000  -2.031057980000 AA    0.000000000000   0.004253093205  -3.838143325312 Bohr
[INPUT]  8 H      0.000000020000   2.062597250000   0.476565370000 AA    0.000000037795   3.897743907781   0.900578029752 Bohr
[INPUT]  9 H      0.000000000000   2.152221380000   2.983085990000 AA    0.000000000000   4.067108967633   5.637215527127 Bohr
[INPUT] 10 H     -0.000000010000  -0.023160480000   4.237149710000 AA   -0.000000018897  -0.043766964113   8.007052500680 Bohr
[INPUT] 11 H     -0.000000020000  -2.174144850000   2.941387880000 AA   -0.000000037795  -4.108538321634   5.558417519315 Bohr
[INPUT] 12 H      0.000000000000  -2.034759630000   0.435189430000 AA    0.000000000000  -3.845138430021   0.822388835006 Bohr
[INPUT] 13 H     -0.000000030000   1.027276940000  -1.691637750000 AA   -0.000000056692   1.941272070681  -3.196732049475 Bohr
[INPUT] 14 H     -0.887148910000  -0.503982330000  -1.680151970000 AA   -1.676468471606  -0.952388575320  -3.175027070948 Bohr
[INPUT] 15 H      0.887148940000  -0.503982290000  -1.680151970000 AA    1.676468528298  -0.952388499731  -3.175027070948 Bohr
[INPUT] 16 Cl    -0.000000010000   0.000176170000  -3.851742130000 AA   -0.000000018897   0.000332913051  -7.278737728149 Bohr
[INPUT] ---------------- BASIS SET ---------------- 
[INPUT] l, kappa, [nprim/nctr], expnt,             c_1 c_2 ...
[INPUT] C
[INPUT] 0    0    [6    /1   ]  3047.5249         0.0018347
                                457.36951         0.0140373
                                103.94869         0.0688426
                                29.210155         0.2321844
                                9.286663          0.4679413
                                3.163927          0.362312
[INPUT] 0    0    [3    /1   ]  7.8682724         -0.1193324
                                1.8812885         -0.1608542
                                0.5442493         1.1434564
[INPUT] 0    0    [1    /1   ]  0.1687144            1
[INPUT] 1    0    [3    /1   ]  7.8682724         0.0689991
                                1.8812885         0.316424
                                0.5442493         0.7443083
[INPUT] 1    0    [1    /1   ]  0.1687144            1
[INPUT] 2    0    [1    /1   ]  0.8                  1
[INPUT] Cl
[INPUT] 0    0    [6    /1   ]  25180.1           0.001833
                                3780.35           0.014034
                                860.474           0.069097
                                242.145           0.237452
                                77.3349           0.483034
                                26.247            0.339856
[INPUT] 0    0    [6    /1   ]  491.765           -0.0022974
                                116.984           -0.030714
                                37.4153           -0.112528
                                13.7834           0.045016
                                5.45215           0.589353
                                2.22588           0.465206
[INPUT] 0    0    [3    /1   ]  3.18649           -0.25183
                                1.14427           0.061589
                                0.420377          1.06018
[INPUT] 0    0    [1    /1   ]  0.142657             1
[INPUT] 1    0    [6    /1   ]  491.765           0.0039894
                                116.984           0.030318
                                37.4153           0.12988
                                13.7834           0.327951
                                5.45215           0.453527
                                2.22588           0.252154
[INPUT] 1    0    [3    /1   ]  3.18649           -0.014299
                                1.14427           0.323572
                                0.420377          0.743507
[INPUT] 1    0    [1    /1   ]  0.142657             1
[INPUT] 2    0    [1    /1   ]  0.75                 1
[INPUT] N
[INPUT] 0    0    [6    /1   ]  4173.511          0.0018348
                                627.4579          0.013995
                                142.9021          0.068587
                                40.23433          0.232241
                                12.82021          0.46907
                                4.390437          0.360455
[INPUT] 0    0    [3    /1   ]  11.626358         -0.114961
                                2.71628           -0.169118
                                0.772218          1.145852
[INPUT] 0    0    [1    /1   ]  0.2120313            1
[INPUT] 1    0    [3    /1   ]  11.626358         0.06758
                                2.71628           0.323907
                                0.772218          0.740895
[INPUT] 1    0    [1    /1   ]  0.2120313            1
[INPUT] 2    0    [1    /1   ]  0.8                  1
[INPUT] H
[INPUT] 0    0    [3    /1   ]  18.731137         0.0334946
                                2.8253937         0.23472695
                                0.6401217         0.81375733
[INPUT] 0    0    [1    /1   ]  0.1612778            1

nuclear repulsion = 380.660489499257
number of shells = 66
number of NR pGTOs = 272
number of NR cGTOs = 132
basis = 631g*
ecp = {}
CPU time:         0.37


******** <class 'pyscf.dft.rks.RKS'> ********
method = RKS
initial guess = minao
damping factor = 0
level_shift factor = 0
DIIS = <class 'pyscf.scf.diis.CDIIS'>
diis_start_cycle = 1
diis_space = 8
SCF conv_tol = 1e-09
SCF conv_tol_grad = None
SCF max_cycles = 50
direct_scf = True
direct_scf_tol = 1e-13
chkfile to save SCF result = /scratch/global/yangjunjie/tmp4h2mdnp2
max_memory 127949 MB (current use 81 MB)
XC library pyscf.dft.libxc version 5.2.0
    S. Lehtola, C. Steigemann, M. J. Oliveira, and M. A. Marques, SoftwareX 7, 1 (2018)
XC functionals = b3lyp
    P. A. M. Dirac, Math. Proc. Cambridge Philos. Soc. 26, 376 (1930)
    F. Bloch, Z. Phys. 57, 545 (1929)
    A. D. Becke, Phys. Rev. A 38, 3098 (1988)
    C. Lee, W. Yang, and R. G. Parr, Phys. Rev. B 37, 785 (1988)
    B. Miehlich, A. Savin, H. Stoll, and H. Preuss, Chem. Phys. Lett. 157, 200 (1989)
    S. H. Vosko, L. Wilk, and M. Nusair, Can. J. Phys. 58, 1200 (1980)
radial grids: 
    Treutler-Ahlrichs [JCP 102, 346 (1995); DOI:10.1063/1.469408] (M4) radial grids
    
becke partition: Becke, JCP 88, 2547 (1988); DOI:10.1063/1.454033
pruning grids: <function nwchem_prune at 0x7f716af17ee0>
grids dens level: 3
symmetrized grids: False
atomic radii adjust function: <function treutler_atomic_radii_adjust at 0x7f716af17e50>
small_rho_cutoff = 1e-07
Set gradient conv threshold to 3.16228e-05
atom C rad-grids = 75, ang-grids = [ 50  50  50  50  50  50  50  50  50  50  50  50  50  50  50  50  50  50
  50  50  50  50  50  86  86  86  86  86  86  86  86  86  86 266 266 266
 266 266 266 266 302 302 302 302 302 302 302 302 302 302 302 302 302 302
 302 302 302 302 302 302 266 266 266 266 266 266 266 266 266 266 266 266
 266 266 266]
atom N rad-grids = 75, ang-grids = [ 50  50  50  50  50  50  50  50  50  50  50  50  50  50  50  50  50  50
  50  50  50  50  50  86  86  86  86  86  86  86  86  86 266 266 266 266
 266 266 266 302 302 302 302 302 302 302 302 302 302 302 302 302 302 302
 302 302 302 302 266 266 266 266 266 266 266 266 266 266 266 266 266 266
 266 266 266]
atom H rad-grids = 50, ang-grids = [ 50  50  50  50  50  50  50  50  50  50  50  50  50  50  86  86  86  86
 266 266 266 266 302 302 302 302 302 302 302 302 302 302 302 302 302 266
 266 266 266 266 266 266 266 266 266 266 266 266 266 266]
atom Cl rad-grids = 80, ang-grids = [ 50  50  50  50  50  50  50  50  50  50  50  50  50  50  50  50  50  50
  50  50  50  50  50  50  86  86  86  86  86  86  86  86  86  86  86  86
  86 350 350 350 350 350 350 350 350 350 434 434 434 434 434 434 434 434
 434 434 434 434 434 434 434 434 434 434 350 350 350 350 350 350 350 350
 350 350 350 350 350 350 350 350]
tot grids = 196530
Drop grids 33453
    CPU time for setting up grids      3.18 sec, wall time      0.12 sec
nelec by numeric integration = 67.97646707460675
    CPU time for vxc      6.03 sec, wall time      0.22 sec
E1 = -1774.4758355178028  Ecoul = 715.1384273939902  Exc = -70.39937284599839
init E= -749.076291470554
cond(S) = 6411.144850230418
    CPU time for initialize scf     16.31 sec, wall time      0.65 sec
  HOMO = -0.293665053382421  LUMO = -0.0960706858993704
  mo_energy =
[-1.01597252e+02 -1.44110742e+01 -1.02918708e+01 -1.02907428e+01
 -1.02903410e+01 -1.02901470e+01 -1.02859747e+01 -1.02853389e+01
 -9.53820406e+00 -7.29410412e+00 -7.29289251e+00 -7.29289176e+00
 -1.10615129e+00 -9.41247833e-01 -9.29965006e-01 -8.87009617e-01
 -7.61693663e-01 -7.16462065e-01 -7.02055294e-01 -5.78252553e-01
 -5.32136835e-01 -5.13537256e-01 -4.76702132e-01 -4.76087021e-01
 -4.64388843e-01 -4.63417161e-01 -4.38125038e-01 -4.25987673e-01
 -4.02106174e-01 -3.45017564e-01 -3.43241388e-01 -3.26611269e-01
 -2.93711612e-01 -2.93665053e-01 -9.60706859e-02 -8.17655423e-02
 -3.09289644e-02  5.26534788e-02  6.90687267e-02  7.73614785e-02
  9.04307290e-02  1.13968373e-01  1.22655151e-01  1.23179246e-01
  1.44273015e-01  1.68343510e-01  2.06009481e-01  2.40648346e-01
  2.57413002e-01  2.60246376e-01  3.59777061e-01  3.84770569e-01
  4.02850253e-01  4.14533889e-01  4.14629988e-01  4.25168614e-01
  4.63094691e-01  4.76952737e-01  4.86385889e-01  5.11436510e-01
  5.27332796e-01  5.39008208e-01  5.42352119e-01  5.52303455e-01
  5.56427824e-01  5.57521318e-01  5.81775406e-01  6.08218558e-01
  6.34124420e-01  6.40717952e-01  7.06516807e-01  7.62782042e-01
  7.70484301e-01  7.88094709e-01  7.89469269e-01  7.99849295e-01
  8.03683462e-01  8.04176383e-01  8.25758890e-01  8.38775251e-01
  8.51486121e-01  8.73413002e-01  8.80150154e-01  8.99187376e-01
  9.13628193e-01  9.28979719e-01  9.77743647e-01  1.01514293e+00
  1.03745303e+00  1.08476238e+00  1.12216048e+00  1.16082470e+00
  1.17317707e+00  1.17914903e+00  1.30775630e+00  1.35127646e+00
  1.39516386e+00  1.41473037e+00  1.41515115e+00  1.44742174e+00
  1.45678178e+00  1.50985398e+00  1.62508045e+00  1.62560082e+00
  1.64811261e+00  1.70820999e+00  1.75619820e+00  1.78190539e+00
  1.86457006e+00  1.89123447e+00  1.99295269e+00  2.05189313e+00
  2.06694690e+00  2.09744564e+00  2.10403579e+00  2.12793011e+00
  2.15764693e+00  2.17570521e+00  2.19296609e+00  2.21766914e+00
  2.26252899e+00  2.29975828e+00  2.47891036e+00  2.48376934e+00
  2.58960022e+00  2.61109365e+00  2.62787014e+00  2.64091215e+00
  2.70349278e+00  2.70992274e+00  2.96252674e+00  3.32744236e+00]
nelec by numeric integration = 68.00004194319634
    CPU time for vxc      6.26 sec, wall time      0.23 sec
E1 = -1782.686605469631  Ecoul = 724.8000432320899  Exc = -70.85036605131715
cycle= 1 E= -748.076438789602  delta_E=    1  |g|= 0.385  |ddm|= 3.96
    CPU time for cycle= 1      6.77 sec, wall time      0.25 sec
  HOMO = -0.190168584008064  LUMO = 0.00957812719528196
  mo_energy =
[-1.01345432e+02 -1.41889430e+01 -1.01925640e+01 -1.01908864e+01
 -1.01388909e+01 -1.01288178e+01 -1.00986081e+01 -1.00984565e+01
 -9.30239187e+00 -7.06304869e+00 -7.05333981e+00 -7.05333022e+00
 -9.02306567e-01 -7.69022559e-01 -7.59298268e-01 -7.36657220e-01
 -6.16146929e-01 -6.06142968e-01 -6.00163830e-01 -5.13106375e-01
 -4.61246867e-01 -4.42014308e-01 -4.16873705e-01 -3.99231460e-01
 -3.95001908e-01 -3.75799122e-01 -3.66474732e-01 -3.46804102e-01
 -3.32504578e-01 -2.51403081e-01 -2.39573609e-01 -2.20763775e-01
 -2.19908030e-01 -1.90168584e-01  9.57812720e-03  1.28052898e-02
  8.54757557e-02  1.15054279e-01  1.31929878e-01  1.40620513e-01
  1.61070483e-01  1.66182136e-01  1.76378817e-01  1.84272045e-01
  1.89351795e-01  2.19388036e-01  2.84133494e-01  3.11622850e-01
  3.38703942e-01  3.45016876e-01  4.62520223e-01  4.73679662e-01
  4.80143252e-01  5.18700478e-01  5.18985271e-01  5.23878636e-01
  5.31141983e-01  5.63414218e-01  5.72522256e-01  5.94467566e-01
  6.03174572e-01  6.06543091e-01  6.21115892e-01  6.22781094e-01
  6.31889738e-01  6.38123276e-01  6.73889831e-01  6.80976650e-01
  7.13711468e-01  7.27027157e-01  7.97789977e-01  8.29129572e-01
  8.51516727e-01  8.72900037e-01  8.80976073e-01  9.05897870e-01
  9.11980797e-01  9.22529912e-01  9.32568958e-01  9.55457264e-01
  9.58848409e-01  9.78800123e-01  9.86784949e-01  1.00686747e+00
  1.03128258e+00  1.03293052e+00  1.05763807e+00  1.09705722e+00
  1.11278198e+00  1.15154299e+00  1.18077705e+00  1.23840290e+00
  1.27905803e+00  1.28735977e+00  1.40808669e+00  1.42207627e+00
  1.46986808e+00  1.50806656e+00  1.51976212e+00  1.53848983e+00
  1.57017817e+00  1.60350758e+00  1.74290568e+00  1.74757387e+00
  1.74758911e+00  1.80208694e+00  1.87580866e+00  1.89392907e+00
  1.97054765e+00  1.98963026e+00  2.10752317e+00  2.16794257e+00
  2.16954936e+00  2.20979568e+00  2.21199183e+00  2.24705065e+00
  2.27008509e+00  2.28960374e+00  2.30580043e+00  2.32165998e+00
  2.38259841e+00  2.40683474e+00  2.58203030e+00  2.59363975e+00
  2.70529361e+00  2.73225603e+00  2.74240280e+00  2.76288738e+00
  2.83306829e+00  2.83803395e+00  3.09199970e+00  3.45596606e+00]
nelec by numeric integration = 68.00004298228589
    CPU time for vxc      6.24 sec, wall time      0.23 sec
E1 = -1775.0202394575756  Ecoul = 716.5377644624726  Exc = -70.25593015738082
cycle= 2 E= -748.077915653227  delta_E= -0.00148  |g|= 0.407  |ddm|= 0.991
    CPU time for cycle= 2      6.75 sec, wall time      0.24 sec
  HOMO = -0.255495902085302  LUMO = -0.0309435305000906
  mo_energy =
[-1.01462102e+02 -1.43541619e+01 -1.02146212e+01 -1.02140767e+01
 -1.02071708e+01 -1.02003844e+01 -1.02000633e+01 -1.01925005e+01
 -9.39717281e+00 -7.15977860e+00 -7.15035894e+00 -7.15034955e+00
 -9.63798833e-01 -8.15368042e-01 -8.05945528e-01 -7.73648567e-01
 -6.49055993e-01 -6.47630602e-01 -6.31591802e-01 -5.39439817e-01
 -4.90878553e-01 -4.83973154e-01 -4.43602985e-01 -4.24124227e-01
 -4.16185762e-01 -4.14828265e-01 -4.06704324e-01 -3.82316449e-01
 -3.70253507e-01 -3.01464513e-01 -2.71632203e-01 -2.59466333e-01
 -2.58865908e-01 -2.55495902e-01 -3.09435305e-02 -2.21877754e-02
  6.47275015e-02  9.30154698e-02  1.21680018e-01  1.28266059e-01
  1.37955361e-01  1.49394252e-01  1.55828194e-01  1.75961790e-01
  1.76126217e-01  2.09779359e-01  2.55956831e-01  2.86654537e-01
  3.12565051e-01  3.14025871e-01  4.38156508e-01  4.41524118e-01
  4.50911169e-01  4.90756515e-01  4.91208832e-01  4.91881750e-01
  5.03740121e-01  5.28925093e-01  5.47198903e-01  5.74241527e-01
  5.78412887e-01  5.80209271e-01  5.87620387e-01  5.96829525e-01
  6.03269792e-01  6.04692378e-01  6.41938176e-01  6.47383463e-01
  6.80809663e-01  6.99333006e-01  7.66201028e-01  8.13595847e-01
  8.22133286e-01  8.47795345e-01  8.53621689e-01  8.54831540e-01
  8.83069899e-01  8.92071124e-01  9.06509254e-01  9.21260989e-01
  9.30491702e-01  9.40820482e-01  9.44176896e-01  9.81774202e-01
  9.88647447e-01  9.97583295e-01  1.02589025e+00  1.06953393e+00
  1.08820620e+00  1.12698914e+00  1.15904632e+00  1.20700979e+00
  1.24119256e+00  1.24494103e+00  1.36715198e+00  1.39041792e+00
  1.44960266e+00  1.45839527e+00  1.47851617e+00  1.50433720e+00
  1.51739637e+00  1.56630067e+00  1.70084201e+00  1.71712877e+00
  1.71872053e+00  1.76684904e+00  1.82961575e+00  1.84435880e+00
  1.92687539e+00  1.95583909e+00  2.06444390e+00  2.12253026e+00
  2.12918843e+00  2.16244139e+00  2.16946131e+00  2.20578770e+00
  2.23437678e+00  2.26548482e+00  2.28189399e+00  2.28481512e+00
  2.33160282e+00  2.36133309e+00  2.54337576e+00  2.54741213e+00
  2.66058312e+00  2.68433101e+00  2.69703998e+00  2.71954150e+00
  2.78273941e+00  2.78489208e+00  3.04148409e+00  3.40878004e+00]
nelec by numeric integration = 68.00004138934379
    CPU time for vxc      6.06 sec, wall time      0.22 sec
E1 = -1778.6241376867602  Ecoul = 720.3701279416761  Exc = -70.52508654998498
cycle= 3 E= -748.118606795812  delta_E= -0.0407  |g|= 0.0811  |ddm|= 0.493
    CPU time for cycle= 3      6.58 sec, wall time      0.24 sec
  HOMO = -0.251355579274535  LUMO = -0.0312472664306201
  mo_energy =
[-1.01488935e+02 -1.43255540e+01 -1.02322171e+01 -1.02317562e+01
 -1.02171268e+01 -1.02090981e+01 -1.02088346e+01 -1.02043363e+01
 -9.41959647e+00 -7.18256693e+00 -7.17325742e+00 -7.17324772e+00
 -9.59116245e-01 -8.18463821e-01 -8.13724692e-01 -7.78085121e-01
 -6.55175876e-01 -6.48463743e-01 -6.36510941e-01 -5.42371140e-01
 -4.93782107e-01 -4.86913048e-01 -4.47856511e-01 -4.25955650e-01
 -4.19642714e-01 -4.17115322e-01 -4.07885725e-01 -3.85082350e-01
 -3.78316627e-01 -3.00994024e-01 -2.76334796e-01 -2.69158155e-01
 -2.68414078e-01 -2.51355579e-01 -3.12472664e-02 -2.60724607e-02
  5.98556590e-02  9.09371422e-02  1.19806270e-01  1.26359370e-01
  1.36222779e-01  1.48375436e-01  1.55030976e-01  1.74702303e-01
  1.75041323e-01  2.08486221e-01  2.54814031e-01  2.84403675e-01
  3.10896770e-01  3.12691604e-01  4.32470694e-01  4.36467861e-01
  4.48364862e-01  4.83958840e-01  4.84322232e-01  4.87469721e-01
  5.00527579e-01  5.27434477e-01  5.43776390e-01  5.71532016e-01
  5.74865947e-01  5.76461161e-01  5.85134840e-01  5.93228787e-01
  6.00368089e-01  6.01201635e-01  6.43118248e-01  6.43946015e-01
  6.78619321e-01  6.95486048e-01  7.64303644e-01  8.09825148e-01
  8.19408891e-01  8.44841797e-01  8.51209133e-01  8.60368799e-01
  8.77086917e-01  8.84866130e-01  9.02492433e-01  9.15605821e-01
  9.24496471e-01  9.34859516e-01  9.35214568e-01  9.77278705e-01
  9.81004589e-01  9.90899667e-01  1.02594409e+00  1.06712228e+00
  1.08513305e+00  1.12575095e+00  1.15693316e+00  1.20604370e+00
  1.23821169e+00  1.24062467e+00  1.36388934e+00  1.39166583e+00
  1.44901974e+00  1.45579242e+00  1.47348933e+00  1.50080791e+00
  1.51928665e+00  1.56841572e+00  1.70100645e+00  1.71231181e+00
  1.71364062e+00  1.76638660e+00  1.82575702e+00  1.84478435e+00
  1.92526621e+00  1.95174686e+00  2.05985192e+00  2.11856690e+00
  2.12548915e+00  2.16019498e+00  2.16645867e+00  2.20329635e+00
  2.23005334e+00  2.26154026e+00  2.27809179e+00  2.27969633e+00
  2.32993923e+00  2.36112752e+00  2.53919277e+00  2.54645700e+00
  2.65756234e+00  2.68180418e+00  2.69518210e+00  2.71527903e+00
  2.78113326e+00  2.78256912e+00  3.04065936e+00  3.40582594e+00]
nelec by numeric integration = 68.00004158847007
    CPU time for vxc      5.91 sec, wall time      0.21 sec
E1 = -1778.8808490818856  Ecoul = 720.6447739834  Exc = -70.5442066632213
cycle= 4 E= -748.11979226245  delta_E= -0.00119  |g|= 0.0345  |ddm|= 0.0952
    CPU time for cycle= 4      6.45 sec, wall time      0.23 sec
  HOMO = -0.254328775422101  LUMO = -0.0302284642994327
  mo_energy =
[-1.01483154e+02 -1.43347980e+01 -1.02301877e+01 -1.02301094e+01
 -1.02111404e+01 -1.02052400e+01 -1.02027018e+01 -1.02026093e+01
 -9.41538159e+00 -7.17814867e+00 -7.16891956e+00 -7.16890985e+00
 -9.59960212e-01 -8.16382054e-01 -8.11744990e-01 -7.76051493e-01
 -6.55860390e-01 -6.47579813e-01 -6.34567020e-01 -5.40844324e-01
 -4.92200827e-01 -4.85439597e-01 -4.46010839e-01 -4.27002283e-01
 -4.20670577e-01 -4.15696492e-01 -4.07612199e-01 -3.83529174e-01
 -3.77556959e-01 -2.99531522e-01 -2.74064488e-01 -2.68422754e-01
 -2.67665005e-01 -2.54328775e-01 -3.02284643e-02 -2.41192409e-02
  6.00275206e-02  9.20612231e-02  1.19534433e-01  1.26417917e-01
  1.37527052e-01  1.48593497e-01  1.55819424e-01  1.73569457e-01
  1.75585225e-01  2.08045654e-01  2.55961861e-01  2.86392179e-01
  3.11957496e-01  3.13468161e-01  4.33034548e-01  4.37402092e-01
  4.49391748e-01  4.84337875e-01  4.84680215e-01  4.88061656e-01
  5.02383786e-01  5.28667566e-01  5.43863359e-01  5.72676450e-01
  5.76553978e-01  5.76794678e-01  5.87868586e-01  5.94710986e-01
  6.02676779e-01  6.03477067e-01  6.41769182e-01  6.45550756e-01
  6.80977394e-01  6.95534835e-01  7.64146003e-01  8.10782760e-01
  8.22142052e-01  8.46604592e-01  8.51341823e-01  8.57832186e-01
  8.77310237e-01  8.85059435e-01  9.03036062e-01  9.17323040e-01
  9.25531688e-01  9.35715579e-01  9.36180515e-01  9.78405051e-01
  9.81234313e-01  9.91044276e-01  1.02548238e+00  1.06801617e+00
  1.08545425e+00  1.12637052e+00  1.15887025e+00  1.20697311e+00
  1.24012252e+00  1.24015904e+00  1.36616204e+00  1.39205405e+00
  1.44941483e+00  1.45854988e+00  1.47668892e+00  1.50182089e+00
  1.51871091e+00  1.56630605e+00  1.70151552e+00  1.71145471e+00
  1.71253889e+00  1.76661628e+00  1.82836739e+00  1.84539222e+00
  1.92775466e+00  1.95385723e+00  2.06269284e+00  2.12119897e+00
  2.12765339e+00  2.16295428e+00  2.16758396e+00  2.20379647e+00
  2.22987440e+00  2.26047406e+00  2.27686035e+00  2.28168524e+00
  2.33183463e+00  2.36133053e+00  2.54149837e+00  2.54777527e+00
  2.65959629e+00  2.68359934e+00  2.69573969e+00  2.71715217e+00
  2.78302514e+00  2.78383046e+00  3.04068853e+00  3.40718114e+00]
nelec by numeric integration = 68.00004150962921
    CPU time for vxc      5.93 sec, wall time      0.21 sec
E1 = -1778.8192209844349  Ecoul = 720.5787173757229  Exc = -70.54002950858653
cycle= 5 E= -748.120043618042  delta_E= -0.000251  |g|= 0.011  |ddm|= 0.042
    CPU time for cycle= 5      6.48 sec, wall time      0.23 sec
  HOMO = -0.252794758166889  LUMO = -0.0297757624722782
  mo_energy =
[-1.01480326e+02 -1.43319435e+01 -1.02270552e+01 -1.02269069e+01
 -1.02129474e+01 -1.02039159e+01 -1.02038911e+01 -1.02028338e+01
 -9.41321287e+00 -7.17590482e+00 -7.16669002e+00 -7.16668020e+00
 -9.58244143e-01 -8.16071630e-01 -8.11468087e-01 -7.75247316e-01
 -6.54787661e-01 -6.46951472e-01 -6.34201162e-01 -5.40553921e-01
 -4.91637081e-01 -4.85336032e-01 -4.45573912e-01 -4.26009774e-01
 -4.19780838e-01 -4.15656518e-01 -4.06723776e-01 -3.83347850e-01
 -3.76718369e-01 -2.99450225e-01 -2.73526642e-01 -2.67596904e-01
 -2.66850243e-01 -2.52794758e-01 -2.97757625e-02 -2.36177720e-02
  6.09148779e-02  9.20889096e-02  1.20051058e-01  1.26906518e-01
  1.37988300e-01  1.48812572e-01  1.55851550e-01  1.74266248e-01
  1.75694454e-01  2.08671004e-01  2.56322028e-01  2.86313031e-01
  3.12360816e-01  3.14035897e-01  4.33719470e-01  4.37847487e-01
  4.49809111e-01  4.84934464e-01  4.85282073e-01  4.88658556e-01
  5.02798036e-01  5.28941072e-01  5.44384263e-01  5.73283097e-01
  5.77185609e-01  5.77308063e-01  5.87635531e-01  5.95032733e-01
  6.02662613e-01  6.03453933e-01  6.42973058e-01  6.45983997e-01
  6.80632519e-01  6.96698650e-01  7.65135298e-01  8.11499308e-01
  8.21430011e-01  8.46620423e-01  8.52040227e-01  8.59249277e-01
  8.78254658e-01  8.86006255e-01  9.03462421e-01  9.17680605e-01
  9.25999121e-01  9.36531020e-01  9.36669490e-01  9.78912893e-01
  9.82271926e-01  9.91963189e-01  1.02643590e+00  1.06846911e+00
  1.08602236e+00  1.12691443e+00  1.15870547e+00  1.20729253e+00
  1.24063044e+00  1.24101443e+00  1.36650892e+00  1.39239876e+00
  1.44999857e+00  1.45839392e+00  1.47657867e+00  1.50307799e+00
  1.51990331e+00  1.56745405e+00  1.70224184e+00  1.71263063e+00
  1.71374982e+00  1.76747875e+00  1.82849494e+00  1.84597275e+00
  1.92748405e+00  1.95437391e+00  2.06294731e+00  2.12141732e+00
  2.12818765e+00  2.16270874e+00  2.16867462e+00  2.20468964e+00
  2.23105464e+00  2.26155212e+00  2.27797595e+00  2.28238235e+00
  2.33188374e+00  2.36245390e+00  2.54197577e+00  2.54829498e+00
  2.66001335e+00  2.68402129e+00  2.69668466e+00  2.71784776e+00
  2.78322933e+00  2.78447945e+00  3.04186153e+00  3.40785010e+00]
nelec by numeric integration = 68.00004154495878
    CPU time for vxc      5.90 sec, wall time      0.21 sec
E1 = -1778.753875344172  Ecoul = 720.5093155790745  Exc = -70.53600249306135
cycle= 6 E= -748.120072758902  delta_E= -2.91e-05  |g|= 0.00451  |ddm|= 0.0161
    CPU time for cycle= 6      7.15 sec, wall time      0.26 sec
  HOMO = -0.253094354138166  LUMO = -0.0298176713861184
  mo_energy =
[-1.01480387e+02 -1.43325503e+01 -1.02281177e+01 -1.02279544e+01
 -1.02120903e+01 -1.02036100e+01 -1.02035921e+01 -1.02029104e+01
 -9.41330567e+00 -7.17599151e+00 -7.16677957e+00 -7.16676972e+00
 -9.58816724e-01 -8.16070681e-01 -8.11503071e-01 -7.75502873e-01
 -6.54843691e-01 -6.47074176e-01 -6.34243851e-01 -5.40590777e-01
 -4.91774968e-01 -4.85314469e-01 -4.45735577e-01 -4.26174038e-01
 -4.19891710e-01 -4.15573596e-01 -4.06956390e-01 -3.83364865e-01
 -3.76806825e-01 -2.99414783e-01 -2.73720587e-01 -2.67717478e-01
 -2.66970869e-01 -2.53094354e-01 -2.98176714e-02 -2.37643513e-02
  6.08091967e-02  9.21623378e-02  1.19994726e-01  1.26831505e-01
  1.37918012e-01  1.48814911e-01  1.55924542e-01  1.74149117e-01
  1.75723579e-01  2.08562218e-01  2.56231806e-01  2.86378226e-01
  3.12300574e-01  3.13917886e-01  4.33683216e-01  4.37749031e-01
  4.49720699e-01  4.84824350e-01  4.85170516e-01  4.88472139e-01
  5.02683071e-01  5.28909886e-01  5.44325556e-01  5.73132776e-01
  5.77065677e-01  5.77186771e-01  5.87692871e-01  5.95000222e-01
  6.02686962e-01  6.03475602e-01  6.42715193e-01  6.45863115e-01
  6.80787097e-01  6.96447694e-01  7.64942292e-01  8.11324949e-01
  8.21721247e-01  8.46643269e-01  8.51945054e-01  8.58966178e-01
  8.78119121e-01  8.85881766e-01  9.03487978e-01  9.17683293e-01
  9.25970950e-01  9.36535683e-01  9.36542263e-01  9.78851999e-01
  9.82139576e-01  9.91853789e-01  1.02623563e+00  1.06839090e+00
  1.08596183e+00  1.12680010e+00  1.15878583e+00  1.20723875e+00
  1.24050754e+00  1.24087525e+00  1.36638660e+00  1.39234958e+00
  1.44987502e+00  1.45845496e+00  1.47663559e+00  1.50267327e+00
  1.51958242e+00  1.56726016e+00  1.70205784e+00  1.71249574e+00
  1.71362455e+00  1.76727867e+00  1.82847703e+00  1.84586543e+00
  1.92758914e+00  1.95418994e+00  2.06286236e+00  2.12136131e+00
  2.12799631e+00  2.16281078e+00  2.16834980e+00  2.20453719e+00
  2.23085153e+00  2.26143702e+00  2.27785505e+00  2.28218283e+00
  2.33195710e+00  2.36212796e+00  2.54182027e+00  2.54816070e+00
  2.65989638e+00  2.68393463e+00  2.69647943e+00  2.71766770e+00
  2.78324585e+00  2.78432864e+00  3.04159221e+00  3.40772874e+00]
nelec by numeric integration = 68.00004153109367
    CPU time for vxc      6.58 sec, wall time      0.24 sec
E1 = -1778.7677733814821  Ecoul = 720.5236788193341  Exc = -70.5364733481706
cycle= 7 E= -748.120078411062  delta_E= -5.65e-06  |g|= 0.000489  |ddm|= 0.00467
    CPU time for cycle= 7      7.41 sec, wall time      0.26 sec
  HOMO = -0.253071458477345  LUMO = -0.0298056550189222
  mo_energy =
[-1.01480648e+02 -1.43325050e+01 -1.02280438e+01 -1.02279058e+01
 -1.02122105e+01 -1.02034983e+01 -1.02034857e+01 -1.02031151e+01
 -9.41350567e+00 -7.17620005e+00 -7.16698436e+00 -7.16697452e+00
 -9.58784045e-01 -8.16110162e-01 -8.11548406e-01 -7.75457933e-01
 -6.54904139e-01 -6.47050003e-01 -6.34224289e-01 -5.40578856e-01
 -4.91747821e-01 -4.85288369e-01 -4.45701806e-01 -4.26204627e-01
 -4.19937685e-01 -4.15591659e-01 -4.06947529e-01 -3.83347911e-01
 -3.76877526e-01 -2.99411325e-01 -2.73681215e-01 -2.67794149e-01
 -2.67044947e-01 -2.53071458e-01 -2.98056550e-02 -2.37309723e-02
  6.07524189e-02  9.21450352e-02  1.19990324e-01  1.26838419e-01
  1.37941946e-01  1.48815957e-01  1.55924862e-01  1.74127712e-01
  1.75730095e-01  2.08559138e-01  2.56241673e-01  2.86388808e-01
  3.12319244e-01  3.13942043e-01  4.33617229e-01  4.37760032e-01
  4.49733431e-01  4.84770652e-01  4.85116094e-01  4.88435437e-01
  5.02701067e-01  5.28922067e-01  5.44293406e-01  5.73159005e-01
  5.77097870e-01  5.77171525e-01  5.87702597e-01  5.94989558e-01
  6.02696293e-01  6.03483253e-01  6.42719462e-01  6.45891587e-01
  6.80792976e-01  6.96463032e-01  7.64942730e-01  8.11351008e-01
  8.21708811e-01  8.46669558e-01  8.51955128e-01  8.58979487e-01
  8.78068740e-01  8.85812052e-01  9.03461325e-01  9.17649657e-01
  9.25945338e-01  9.36466605e-01  9.36506143e-01  9.78845010e-01
  9.82068829e-01  9.91796430e-01  1.02625403e+00  1.06839506e+00
  1.08593646e+00  1.12680165e+00  1.15879283e+00  1.20725664e+00
  1.24053360e+00  1.24082699e+00  1.36641305e+00  1.39236015e+00
  1.44989273e+00  1.45847391e+00  1.47664863e+00  1.50271265e+00
  1.51961041e+00  1.56726819e+00  1.70208226e+00  1.71242581e+00
  1.71354417e+00  1.76729376e+00  1.82849238e+00  1.84588441e+00
  1.92759604e+00  1.95422707e+00  2.06288367e+00  2.12138957e+00
  2.12803261e+00  2.16281960e+00  2.16838467e+00  2.20452386e+00
  2.23081192e+00  2.26137624e+00  2.27779143e+00  2.28221985e+00
  2.33196392e+00  2.36215784e+00  2.54185478e+00  2.54817850e+00
  2.65992255e+00  2.68395951e+00  2.69650973e+00  2.71770621e+00
  2.78326063e+00  2.78435428e+00  3.04162492e+00  3.40775839e+00]
nelec by numeric integration = 68.00004153721781
    CPU time for vxc      5.88 sec, wall time      0.21 sec
E1 = -1778.7693013537046  Ecoul = 720.5253423541267  Exc = -70.53660897025324
cycle= 8 E= -748.120078470575  delta_E= -5.95e-08  |g|= 0.00018  |ddm|= 0.000664
    CPU time for cycle= 8      6.40 sec, wall time      0.23 sec
  HOMO = -0.253073597852473  LUMO = -0.0298013661224532
  mo_energy =
[-1.01480645e+02 -1.43325070e+01 -1.02280395e+01 -1.02278847e+01
 -1.02121600e+01 -1.02035307e+01 -1.02035174e+01 -1.02030858e+01
 -9.41349695e+00 -7.17619324e+00 -7.16697577e+00 -7.16696593e+00
 -9.58783365e-01 -8.16101364e-01 -8.11539166e-01 -7.75461545e-01
 -6.54894578e-01 -6.47052401e-01 -6.34222501e-01 -5.40575352e-01
 -4.91747769e-01 -4.85295817e-01 -4.45706416e-01 -4.26195885e-01
 -4.19927127e-01 -4.15582632e-01 -4.06944554e-01 -3.83349318e-01
 -3.76869282e-01 -2.99407141e-01 -2.73685661e-01 -2.67785167e-01
 -2.67036190e-01 -2.53073598e-01 -2.98013661e-02 -2.37353582e-02
  6.07609115e-02  9.21476388e-02  1.19993756e-01  1.26838649e-01
  1.37941193e-01  1.48815350e-01  1.55926987e-01  1.74134263e-01
  1.75728653e-01  2.08563152e-01  2.56242884e-01  2.86389943e-01
  3.12318382e-01  3.13939562e-01  4.33617336e-01  4.37760059e-01
  4.49734136e-01  4.84777425e-01  4.85122974e-01  4.88443164e-01
  5.02702230e-01  5.28922205e-01  5.44300661e-01  5.73155890e-01
  5.77093451e-01  5.77176209e-01  5.87702885e-01  5.94997727e-01
  6.02699167e-01  6.03484962e-01  6.42721724e-01  6.45888189e-01
  6.80792932e-01  6.96465084e-01  7.64946599e-01  8.11349438e-01
  8.21716188e-01  8.46662117e-01  8.51955621e-01  8.58980365e-01
  8.78076819e-01  8.85822620e-01  9.03465678e-01  9.17654597e-01
  9.25951050e-01  9.36477080e-01  9.36511433e-01  9.78848649e-01
  9.82075964e-01  9.91802816e-01  1.02625377e+00  1.06839449e+00
  1.08594202e+00  1.12680411e+00  1.15879219e+00  1.20725401e+00
  1.24053309e+00  1.24083376e+00  1.36641241e+00  1.39236038e+00
  1.44989179e+00  1.45847107e+00  1.47665242e+00  1.50271247e+00
  1.51961018e+00  1.56727009e+00  1.70208027e+00  1.71244055e+00
  1.71356054e+00  1.76729608e+00  1.82849372e+00  1.84588560e+00
  1.92759706e+00  1.95422305e+00  2.06288616e+00  2.12138759e+00
  2.12802934e+00  2.16282112e+00  2.16838497e+00  2.20453110e+00
  2.23082263e+00  2.26138972e+00  2.27780560e+00  2.28221635e+00
  2.33196725e+00  2.36215809e+00  2.54185232e+00  2.54818033e+00
  2.65992173e+00  2.68395951e+00  2.69650870e+00  2.71770300e+00
  2.78326285e+00  2.78435545e+00  3.04162521e+00  3.40775787e+00]
nelec by numeric integration = 68.00004153677824
    CPU time for vxc      5.89 sec, wall time      0.21 sec
E1 = -1778.768892389724  Ecoul = 720.5249112151405  Exc = -70.53658680248525
cycle= 9 E= -748.120078477812  delta_E= -7.24e-09  |g|= 4.92e-05  |ddm|= 0.000166
    CPU time for cycle= 9      6.42 sec, wall time      0.23 sec
  HOMO = -0.253078669697727  LUMO = -0.0298069059727066
  mo_energy =
[-1.01480617e+02 -1.43325144e+01 -1.02280415e+01 -1.02278982e+01
 -1.02121775e+01 -1.02035320e+01 -1.02035218e+01 -1.02030759e+01
 -9.41347318e+00 -7.17616910e+00 -7.16695154e+00 -7.16694171e+00
 -9.58789060e-01 -8.16100276e-01 -8.11537195e-01 -7.75465941e-01
 -6.54890692e-01 -6.47057231e-01 -6.34226707e-01 -5.40579716e-01
 -4.91753387e-01 -4.85298516e-01 -4.45709507e-01 -4.26195919e-01
 -4.19925904e-01 -4.15586385e-01 -4.06947839e-01 -3.83353613e-01
 -3.76863184e-01 -2.99412516e-01 -2.73689413e-01 -2.67774880e-01
 -2.67026336e-01 -2.53078670e-01 -2.98069060e-02 -2.37394168e-02
  6.07655010e-02  9.21469666e-02  1.19992267e-01  1.26837471e-01
  1.37936532e-01  1.48814028e-01  1.55924267e-01  1.74134297e-01
  1.75727766e-01  2.08561223e-01  2.56239405e-01  2.86386158e-01
  3.12314284e-01  3.13936006e-01  4.33626810e-01  4.37758038e-01
  4.49731199e-01  4.84784630e-01  4.85130260e-01  4.88447066e-01
  5.02698274e-01  5.28918414e-01  5.44301569e-01  5.73152518e-01
  5.77090517e-01  5.77176377e-01  5.87698570e-01  5.94994130e-01
  6.02694050e-01  6.03481658e-01  6.42718821e-01  6.45885060e-01
  6.80789018e-01  6.96462403e-01  7.64943923e-01  8.11346760e-01
  8.21711051e-01  8.46659839e-01  8.51952868e-01  8.58977013e-01
  8.78081798e-01  8.85829798e-01  9.03465983e-01  9.17657960e-01
  9.25951718e-01  9.36486086e-01  9.36512479e-01  9.78848001e-01
  9.82083963e-01  9.91808636e-01  1.02625047e+00  1.06839311e+00
  1.08594233e+00  1.12680157e+00  1.15878907e+00  1.20725062e+00
  1.24052761e+00  1.24083809e+00  1.36640750e+00  1.39235638e+00
  1.44988831e+00  1.45846576e+00  1.47664662e+00  1.50270790e+00
  1.51960452e+00  1.56726653e+00  1.70207550e+00  1.71244308e+00
  1.71356385e+00  1.76729191e+00  1.82848878e+00  1.84588016e+00
  1.92759216e+00  1.95421911e+00  2.06288067e+00  2.12138259e+00
  2.12802485e+00  2.16281517e+00  2.16838025e+00  2.20452845e+00
  2.23082302e+00  2.26139135e+00  2.27780730e+00  2.28221234e+00
  2.33196080e+00  2.36215282e+00  2.54184783e+00  2.54817482e+00
  2.65991648e+00  2.68395415e+00  2.69650318e+00  2.71769808e+00
  2.78325695e+00  2.78434938e+00  3.04161950e+00  3.40775230e+00]
nelec by numeric integration = 68.00004153640818
    CPU time for vxc      5.93 sec, wall time      0.21 sec
E1 = -1778.768799633338  Ecoul = 720.5248096300993  Exc = -70.53657797448227
cycle= 10 E= -748.120078478464  delta_E= -6.52e-10  |g|= 1.81e-05  |ddm|= 8.35e-05
    CPU time for cycle= 10      6.44 sec, wall time      0.23 sec
  HOMO = -0.253078720048632  LUMO = -0.0298054440261453
  mo_energy =
[-1.01480630e+02 -1.43325166e+01 -1.02280433e+01 -1.02278853e+01
 -1.02121721e+01 -1.02035349e+01 -1.02035192e+01 -1.02030774e+01
 -9.41348358e+00 -7.17617967e+00 -7.16696213e+00 -7.16695230e+00
 -9.58787470e-01 -8.16101536e-01 -8.11538819e-01 -7.75464172e-01
 -6.54891893e-01 -6.47055793e-01 -6.34225220e-01 -5.40578101e-01
 -4.91751644e-01 -4.85297619e-01 -4.45708145e-01 -4.26196127e-01
 -4.19926385e-01 -4.15585591e-01 -4.06946846e-01 -3.83352195e-01
 -3.76865405e-01 -2.99411291e-01 -2.73687847e-01 -2.67778954e-01
 -2.67030281e-01 -2.53078720e-01 -2.98054440e-02 -2.37378794e-02
  6.07638861e-02  9.21469401e-02  1.19993151e-01  1.26837765e-01
  1.37937918e-01  1.48814238e-01  1.55925212e-01  1.74133929e-01
  1.75727103e-01  2.08562595e-01  2.56240380e-01  2.86387193e-01
  3.12315997e-01  3.13936621e-01  4.33624380e-01  4.37758287e-01
  4.49732402e-01  4.84781754e-01  4.85127368e-01  4.88444690e-01
  5.02699969e-01  5.28919263e-01  5.44301031e-01  5.73154032e-01
  5.77091583e-01  5.77175942e-01  5.87699969e-01  5.94995541e-01
  6.02696436e-01  6.03481983e-01  6.42719225e-01  6.45886304e-01
  6.80789962e-01  6.96463653e-01  7.64944982e-01  8.11348056e-01
  8.21712513e-01  8.46660388e-01  8.51953813e-01  8.58977049e-01
  8.78079540e-01  8.85826802e-01  9.03465766e-01  9.17656064e-01
  9.25951499e-01  9.36482378e-01  9.36512251e-01  9.78847951e-01
  9.82080692e-01  9.91806386e-01  1.02625139e+00  1.06839335e+00
  1.08594212e+00  1.12680243e+00  1.15879001e+00  1.20725151e+00
  1.24052932e+00  1.24083582e+00  1.36640923e+00  1.39235707e+00
  1.44988959e+00  1.45846701e+00  1.47664862e+00  1.50271015e+00
  1.51960583e+00  1.56726701e+00  1.70207661e+00  1.71244219e+00
  1.71356272e+00  1.76729324e+00  1.82849031e+00  1.84588139e+00
  1.92759334e+00  1.95422073e+00  2.06288271e+00  2.12138419e+00
  2.12802656e+00  2.16281663e+00  2.16838212e+00  2.20452907e+00
  2.23082287e+00  2.26139086e+00  2.27780685e+00  2.28221405e+00
  2.33196234e+00  2.36215446e+00  2.54184960e+00  2.54817627e+00
  2.65991817e+00  2.68395569e+00  2.69650482e+00  2.71769988e+00
  2.78325806e+00  2.78435155e+00  3.04162116e+00  3.40775401e+00]
nelec by numeric integration = 68.00004153662525
    CPU time for vxc      5.91 sec, wall time      0.21 sec
E1 = -1778.768874435525  Ecoul = 720.5248906959156  Exc = -70.53658423796784
Extra cycle  E= -748.120078478321  delta_E= 1.43e-10  |g|= 2.88e-05  |ddm|= 4.76e-05
    CPU time for scf_cycle     89.54 sec, wall time      3.28 sec
    CPU time for SCF     89.54 sec, wall time      3.28 sec
converged SCF energy = -748.120078478321
Converting <class 'pyscf.dft.rks.RKS'> to RHF


******** <class 'pyscf.tdscf.rks.TDA'> for <class 'pyscf.dft.rks.RKS'> ********
nstates = 10 singlet
wfnsym = None
conv_tol = 1e-09
eigh lindep = 1e-12
eigh level_shift = 0
eigh max_space = 50
eigh max_cycle = 100
chkfile = /scratch/global/yangjunjie/tmp4h2mdnp2
max_memory 127949 MB (current use 604 MB)


davidson 0 10  |r|= 0.249  e= [0.17942154 0.18011466 0.21574165 0.2178767  0.21812597 0.22432708
 0.22598074 0.27976182 0.36406634 0.37264186]  max|de|= 0.373  lindep=    1
davidson 1 20  |r|= 0.0487  e= [0.17664198 0.17905218 0.21213781 0.21770619 0.21771431 0.22424674
 0.22507997 0.24961724 0.30268757 0.30389738]  max|de|= -0.0687  lindep= 0.881
Old state -> New state
    4     ->     3 
    3     ->     4 
    9     ->     8 
    8     ->     9 
davidson 2 30  |r|= 0.0295  e= [0.17650829 0.17902406 0.21200874 0.21767203 0.21770516 0.22424456
 0.22502867 0.24934005 0.2992311  0.30040625]  max|de|= -0.00467  lindep= 0.816
davidson 3 40  |r|= 0.0418  e= [0.17650626 0.17902351 0.21200357 0.21767055 0.2177051  0.22424441
 0.22502739 0.24930449 0.29375821 0.29996025]  max|de|= -0.00547  lindep= 0.809
davidson 4 50  |r|= 0.0388  e= [0.1765062  0.1790235  0.21200342 0.21767044 0.2177051  0.22424439
 0.22502731 0.24930061 0.28790078 0.29981292]  max|de|= -0.00586  lindep= 0.775
root 0 converged  |r|= 2.19e-06  e= 0.1765062038138338  max|de|= -6.61e-10
root 1 converged  |r|= 8.8e-07  e= 0.17902349931427852  max|de|= -1.34e-10
root 4 converged  |r|= 3.35e-06  e= 0.217705097127466  max|de|= -4.67e-10
root 5 converged  |r|= 6.52e-06  e= 0.22424438857504758  max|de|= -7.58e-10
davidson 5 60  |r|= 0.078  e= [0.1765062  0.1790235  0.21200341 0.21767044 0.2177051  0.22424439
 0.22502731 0.24930029 0.28444778 0.29106455]  max|de|= -0.00875  lindep= 0.849
Old state -> New state
    9     ->     8 
    8     ->     9 
root 2 converged  |r|= 1.43e-06  e= 0.2120034126327734  max|de|= -6.9e-11
root 3 converged  |r|= 2.49e-06  e= 0.21767043768168134  max|de|= -2.16e-10
root 6 converged  |r|= 3.61e-06  e= 0.22502730834716628  max|de|= -3.41e-10
davidson 6 66  |r|= 0.017  e= [0.1765062  0.1790235  0.21200341 0.21767044 0.2177051  0.22424439
 0.22502731 0.24930026 0.28296651 0.28446759]  max|de|= -0.0081  lindep= 0.865
davidson 7 69  |r|= 0.00597  e= [0.1765062  0.1790235  0.21200341 0.21767044 0.2177051  0.22424439
 0.22502731 0.24930026 0.28251322 0.28426973]  max|de|= -0.000453  lindep= 0.817
root 7 converged  |r|= 7.05e-06  e= 0.24930026305355849  max|de|= 1.39e-16
davidson 8 10  |r|= 0.00597  e= [0.1765062  0.1790235  0.21200341 0.21767044 0.2177051  0.22424439
 0.22502731 0.24930026 0.28251322 0.28426973]  max|de|= -8.33e-16  lindep=    1
davidson 9 12  |r|= 0.00346  e= [0.1765062  0.1790235  0.21200341 0.21767044 0.2177051  0.22424439
 0.22502731 0.24930026 0.28246564 0.28425353]  max|de|= -4.76e-05  lindep= 0.695
davidson 10 14  |r|= 0.000978  e= [0.1765062  0.1790235  0.21200341 0.21767044 0.2177051  0.22424439
 0.22502731 0.24930026 0.28245186 0.284249  ]  max|de|= -1.38e-05  lindep= 0.909
davidson 11 16  |r|= 0.000342  e= [0.1765062  0.1790235  0.21200341 0.21767044 0.2177051  0.22424439
 0.22502731 0.24930026 0.28245052 0.28424853]  max|de|= -1.34e-06  lindep= 0.906
davidson 12 18  |r|= 0.000146  e= [0.1765062  0.1790235  0.21200341 0.21767044 0.2177051  0.22424439
 0.22502731 0.24930026 0.28245036 0.28424847]  max|de|= -1.68e-07  lindep= 0.913
davidson 13 20  |r|= 6.97e-05  e= [0.1765062  0.1790235  0.21200341 0.21767044 0.2177051  0.22424439
 0.22502731 0.24930026 0.28245033 0.28424845]  max|de|= -2.73e-08  lindep=  0.9
davidson 14 22  |r|= 3.04e-05  e= [0.1765062  0.1790235  0.21200341 0.21767044 0.2177051  0.22424439
 0.22502731 0.24930026 0.28245032 0.28424845]  max|de|= -6.32e-09  lindep= 0.876
root 9 converged  |r|= 1.52e-05  e= 0.2842484489368208  max|de|= -9.7e-10
davidson 15 24  |r|= 1.75e-05  e= [0.1765062  0.1790235  0.21200341 0.21767044 0.2177051  0.22424439
 0.22502731 0.24930026 0.28245032 0.28424845]  max|de|= -1.11e-09  lindep= 0.841
root 8 converged  |r|= 7.82e-06  e= 0.2824503207375654  max|de|= -4.14e-10
converged 16 25  |r|= 1.03e-05  e= [0.1765062  0.1790235  0.21200341 0.21767044 0.2177051  0.22424439
 0.22502731 0.24930026 0.28245032 0.28424845]  max|de|= -4.14e-10
    CPU time for TDA    264.55 sec, wall time      9.60 sec
Excited State energies (eV)
[4.80297845 4.87147755 5.7689067  5.9231143  5.92405744 6.10200062
 6.12330495 6.78380569 7.68586471 7.73479426]
Converting <class 'pyscf.dft.rks.RKS'> to RHF


******** <class 'pyscf.tdscf.rks.TDDFT'> for <class 'pyscf.dft.rks.RKS'> ********
nstates = 10 singlet
wfnsym = None
conv_tol = 1e-09
eigh lindep = 1e-12
eigh level_shift = 0
eigh max_space = 50
eigh max_cycle = 100
chkfile = /scratch/global/yangjunjie/tmp4h2mdnp2
max_memory 127949 MB (current use 632 MB)


davidson 0 10  |r|= 0.391  e= [0.17942154 0.18011466 0.21574165 0.2178767  0.21812597 0.22432708
 0.22598074 0.27976182 0.36406634 0.37264186]  max|de|= 0.373  lindep=    1
Old state -> New state
    8     ->     0 
    9     ->     1 
    0     ->     2 
    1     ->     3 
    7     ->     4 
    2     ->     5 
    3     ->     6 
    4     ->     7 
    5     ->     8 
    6     ->     9 
davidson 1 20  |r|= 0.728  e= [0.05853212 0.08072107 0.17258797 0.17864545 0.20129376 0.21041709
 0.21769528 0.21771756 0.22423513 0.22477919]  max|de|= -0.306  lindep= 0.124
Old state -> New state
    3     ->     0 
    5     ->     4 
    7     ->     5 
    8     ->     7 
    9     ->     8 
    4     ->     9 
davidson 2 30  |r|= 1.64  e= [0.03878132 0.05517651 0.17531883 0.17868483 0.21005428 0.21744186
 0.21769913 0.22423855 0.22460856 0.23855195]  max|de|= -0.14  lindep= 0.0583
Old state -> New state
    1     ->     0 
    0     ->     2 
    2     ->     3 
    3     ->     4 
    4     ->     5 
    5     ->     6 
    6     ->     7 
    7     ->     8 
    8     ->     9 
davidson 3 40  |r|= 1.62  e= [0.04110963 0.0731574  0.13915598 0.17491123 0.17875117 0.21014807
 0.2174644  0.21770017 0.22424243 0.22465115]  max|de|=  0.1  lindep= 0.0454
Old state -> New state
    1     ->     0 
    2     ->     1 
    3     ->     2 
    4     ->     3 
    5     ->     4 
    6     ->     5 
    7     ->     6 
    8     ->     7 
    9     ->     8 
    1     ->     9 
davidson 4 50  |r|= 1.18  e= [0.00932372 0.01584798 0.17485594 0.17880329 0.21012314 0.21744802
 0.21770245 0.22424111 0.22471233 0.2391858 ]  max|de|= 0.166  lindep= 0.154
Old state -> New state
    1     ->     0 
    4     ->     5 
    5     ->     6 
    6     ->     7 
    1     ->     8 
    7     ->     9 
davidson 5 60  |r|=  1.2  e= [0.00839532 0.06204777 0.17483275 0.17879969 0.2037536  0.20996901
 0.21751172 0.21769815 0.21978794 0.22424135]  max|de|= 0.204  lindep= 0.0965
Old state -> New state
    0     ->     1 
    4     ->     3 
    2     ->     4 
    3     ->     5 
    5     ->     6 
    6     ->     7 
    7     ->     8 
davidson 6 70  |r|= 1.25  e= [0.00554814 0.03635927 0.12620652 0.14566436 0.17483352 0.17880555
 0.21006092 0.21748569 0.2177025  0.22424099]  max|de|= -0.0581  lindep= 0.0172
Old state -> New state
    0     ->     1 
    4     ->     2 
    5     ->     3 
    6     ->     4 
    7     ->     5 
    8     ->     6 
    9     ->     7 
    3     ->     8 
    1     ->     9 
davidson 7 80  |r|= 1.26  e= [0.00548934 0.0502362  0.1748286  0.17880336 0.21007504 0.21746688
 0.21770246 0.22424096 0.22467495 0.23493088]  max|de|= 0.199  lindep= 0.00244
davidson 8 10  |r|= 1.26  e= [0.00548934 0.0502362  0.1748286  0.17880336 0.21007504 0.21746688
 0.21770246 0.22424096 0.22467495 0.23493088]  max|de|= 6.93e-14  lindep= 0.219
Old state -> New state
    0     ->     1 
    8     ->     2 
    1     ->     3 
    1     ->     4 
    2     ->     5 
    3     ->     6 
    2     ->     7 
    4     ->     8 
    5     ->     9 
davidson 9 20  |r|= 1.44  e= [0.00566078 0.00740018 0.09631712 0.12695186 0.16710974 0.17483025
 0.17880469 0.20893008 0.21007535 0.21747232]  max|de|= -0.128  lindep= 0.00671
Old state -> New state
    2     ->     0 
    0     ->     2 
    8     ->     3 
    5     ->     4 
    6     ->     5 
    5     ->     6 
    8     ->     7 
    9     ->     8 
    7     ->     9 
davidson 10 30  |r|= 1.33  e= [0.00348215 0.00632615 0.04008469 0.15892391 0.17489664 0.17879635
 0.19884321 0.21005096 0.21747537 0.21770224]  max|de|= -0.0928  lindep= 0.0746
Old state -> New state
    1     ->     0 
    4     ->     3 
    5     ->     4 
    7     ->     5 
    8     ->     6 
    9     ->     7 
    6     ->     8 
    3     ->     9 
davidson 11 40  |r|= 1.02  e= [0.0034784  0.007374   0.12330608 0.17481897 0.17880333 0.2100398
 0.21751424 0.21770214 0.22424098 0.22466298]  max|de|= 0.0832  lindep= 0.128
Old state -> New state
    3     ->     0 
    3     ->     1 
    3     ->     2 
    5     ->     6 
    6     ->     7 
    7     ->     8 
    8     ->     9 
davidson 12 50  |r|=  1.3  e= [0.03307376 0.08351633 0.15320675 0.17482983 0.17880331 0.19971892
 0.21006392 0.21748041 0.21770247 0.22424097]  max|de|= -0.142  lindep= 0.151
Old state -> New state
    1     ->     0 
    0     ->     1 
    3     ->     2 
    6     ->     5 
    7     ->     6 
    8     ->     7 
    9     ->     8 
    2     ->     9 
davidson 13 60  |r|= 1.47  e= [0.02246499 0.09629119 0.16745482 0.17482689 0.17880328 0.21009839
 0.2174537  0.21770242 0.22424097 0.22468212]  max|de|= 0.0715  lindep= 0.108
Old state -> New state
    3     ->     0 
    4     ->     1 
    5     ->     2 
    5     ->     3 
    6     ->     4 
    7     ->     5 
    8     ->     6 
    9     ->     7 
    2     ->     8 
    2     ->     9 
davidson 14 70  |r|= 0.643  e= [0.17482589 0.17880328 0.21010188 0.21049109 0.21749184 0.21770246
 0.22424102 0.22467942 0.26403507 0.28593759]  max|de|= 0.118  lindep= 0.282
Old state -> New state
    8     ->     0 
    2     ->     1 
    0     ->     2 
    1     ->     3 
    2     ->     4 
    4     ->     5 
    5     ->     6 
    6     ->     7 
    7     ->     8 
    8     ->     9 
davidson 15 80  |r|= 1.23  e= [0.10573231 0.15832393 0.17482618 0.17880319 0.21008861 0.21748954
 0.21770242 0.22424097 0.22467738 0.26184762]  max|de|= -0.158  lindep= 0.117
root 7 converged  |r|= 2.83e-05  e= 0.22424097478404073  max|de|= 1.94e-16
davidson 16 10  |r|= 1.23  e= [0.10573231 0.15832393 0.17482618 0.17880319 0.21008861 0.21748954
 0.21770242 0.22424097 0.22467738 0.26184762]  max|de|= -6e-15  lindep= 0.456
Old state -> New state
    8     ->     9 
davidson 17 19  |r|= 1.25  e= [0.01636622 0.06856027 0.17482604 0.1788032  0.21009268 0.21750184
 0.21770242 0.22424097 0.22438711 0.22462762]  max|de|= -0.0898  lindep= 0.291
Old state -> New state
    9     ->     8 
    1     ->     9 
davidson 18 29  |r|= 1.16  e= [0.04402701 0.10541763 0.17482594 0.17880323 0.21009339 0.21749098
 0.21770241 0.22424095 0.22467935 0.23158556]  max|de|= 0.163  lindep= 0.137
Old state -> New state
    0     ->     1 
    4     ->     2 
    2     ->     3 
    3     ->     4 
    4     ->     5 
    4     ->     6 
    5     ->     7 
    6     ->     8 
    7     ->     9 
davidson 19 39  |r|= 1.17  e= [0.03026303 0.032408   0.12704579 0.17482595 0.1788032  0.1834854
 0.21009626 0.21749111 0.21770242 0.22424096]  max|de|= -0.083  lindep= 0.105
Old state -> New state
    1     ->     0 
    5     ->     1 
    3     ->     2 
    4     ->     3 
    6     ->     4 
    6     ->     5 
    7     ->     6 
    8     ->     7 
    9     ->     8 
    5     ->     9 
root 7 converged  |r|= 1.23e-05  e= 0.2177024194141985  max|de|= 4.85e-10
davidson 20 49  |r|= 1.19  e= [0.04923198 0.13011626 0.17482598 0.17880323 0.21010909 0.2104664
 0.21750256 0.21770242 0.22424096 0.22467797]  max|de|= -0.0534  lindep= 0.139
Old state -> New state
    2     ->     1 
    3     ->     2 
    4     ->     3 
    6     ->     4 
    7     ->     5 
    8     ->     6 
    9     ->     7 
    4     ->     8 
    5     ->     9 
root 6 converged  |r|= 9.16e-06  e= 0.22424096386234343  max|de|= 2.1e-10
davidson 21 58  |r|= 1.18  e= [0.04126705 0.17482591 0.17880323 0.21009338 0.21749051 0.21770242
 0.22424096 0.22467859 0.23664935 0.24450221]  max|de|= 0.034  lindep= 0.103
Old state -> New state
    0     ->     1 
    1     ->     2 
    2     ->     3 
    3     ->     4 
    4     ->     5 
    5     ->     6 
    6     ->     7 
    7     ->     8 
root 6 converged  |r|= 1.33e-06  e= 0.21770241762332482  max|de|= 3.03e-10
davidson 22 67  |r|= 1.18  e= [0.04167286 0.06982742 0.17482592 0.17880323 0.21009302 0.21749002
 0.21770242 0.22424096 0.22467827 0.29369512]  max|de|= 0.0492  lindep= 0.0377
Old state -> New state
    1     ->     0 
    0     ->     1 
    0     ->     2 
    2     ->     3 
    2     ->     4 
    3     ->     5 
    4     ->     6 
    5     ->     7 
    6     ->     8 
    7     ->     9 
root 9 converged  |r|= 5.72e-07  e= 0.2242409634500303  max|de|= 7.1e-10
davidson 23 75  |r|= 1.34  e= [0.00163612 0.01229401 0.02693179 0.17385635 0.17482614 0.17880323
 0.2100931  0.21749006 0.21770242 0.22424096]  max|de|= -0.0682  lindep= 0.0888
Old state -> New state
    4     ->     1 
    5     ->     2 
    4     ->     3 
    6     ->     4 
    7     ->     5 
    8     ->     6 
    9     ->     7 
    3     ->     8 
    1     ->     9 
davidson 24 83  |r|= 1.16  e= [0.00315414 0.17482594 0.17880323 0.1924858  0.21009289 0.21748993
 0.21770242 0.22424096 0.22467819 0.23974016]  max|de|= 0.227  lindep= 0.0307
root 1 converged  |r|= 1.92e-06  e= 0.1748259392007187  max|de|= 2.05e-14
root 2 converged  |r|= 6.71e-07  e= 0.17880322789498707  max|de|= -1.31e-14
root 4 converged  |r|= 6.51e-06  e= 0.21009288846289592  max|de|= 2.13e-14
root 8 converged  |r|= 2.65e-05  e= 0.22467819038130832  max|de|= 5.36e-14
davidson 25 10  |r|= 1.16  e= [0.00315414 0.17482594 0.17880323 0.1924858  0.21009289 0.21748993
 0.21770242 0.22424096 0.22467819 0.23974016]  max|de|= -1.6e-13  lindep= 0.335
Old state -> New state
    4     ->     3 
    5     ->     4 
    6     ->     5 
    7     ->     6 
    8     ->     7 
    9     ->     8 
    3     ->     9 
davidson 26 14  |r|= 1.61  e= [0.02143215 0.17482595 0.17880323 0.21009292 0.21749001 0.21770242
 0.22424096 0.22467826 0.23959242 0.37233574]  max|de|= 0.18  lindep= 0.192
Old state -> New state
    3     ->     1 
    1     ->     2 
    2     ->     3 
    3     ->     4 
    3     ->     5 
    4     ->     6 
    5     ->     7 
    6     ->     8 
    7     ->     9 
davidson 27 20  |r|= 1.28  e= [0.03881745 0.10946532 0.17482594 0.17880323 0.20670651 0.21009064
 0.21748776 0.21770242 0.22424097 0.22467722]  max|de|= -0.101  lindep= 0.176
Old state -> New state
    0     ->     1 
    0     ->     2 
    2     ->     3 
    3     ->     4 
    5     ->     6 
    6     ->     7 
    7     ->     8 
    8     ->     9 
davidson 28 28  |r|= 1.43  e= [0.00850306 0.0599109  0.15299044 0.17482595 0.17880323 0.2088608
 0.21009379 0.21749002 0.21770242 0.22424096]  max|de|= 0.114  lindep= 0.239
Old state -> New state
    0     ->     1 
    3     ->     2 
    4     ->     3 
    6     ->     4 
    7     ->     5 
    8     ->     6 
    9     ->     7 
    2     ->     8 
    1     ->     9 
root 2 converged  |r|= 2.13e-07  e= 0.17482595224158237  max|de|= -9.91e-10
root 3 converged  |r|= 1.44e-07  e= 0.1788032293339835  max|de|= -8.14e-10
root 7 converged  |r|= 6.1e-07  e= 0.22424096294183776  max|de|= -2e-10
davidson 29 35  |r|= 1.44  e= [0.00385346 0.10734301 0.17482595 0.17880323 0.21009293 0.21748994
 0.21770242 0.22424096 0.22467833 0.33308082]  max|de|= 0.273  lindep= 0.152
Old state -> New state
    0     ->     1 
davidson 30 41  |r|= 1.24  e= [0.01329993 0.08111913 0.17482595 0.17880323 0.21009297 0.21748972
 0.21770242 0.22424096 0.22467847 0.2301292 ]  max|de|= -0.103  lindep= 0.0988
Old state -> New state
    2     ->     1 
    3     ->     2 
    4     ->     3 
    5     ->     4 
    6     ->     5 
    7     ->     6 
    8     ->     7 
    9     ->     8 
davidson 31 47  |r|= 1.19  e= [0.01117244 0.17482595 0.17880323 0.21009292 0.21749002 0.21770242
 0.22424096 0.22467823 0.23766357 0.24567611]  max|de|= 0.0155  lindep= 0.0884
Old state -> New state
    0     ->     1 
    1     ->     2 
    2     ->     3 
    3     ->     4 
    4     ->     5 
    5     ->     6 
    6     ->     7 
    7     ->     8 
    8     ->     9 
davidson 32 53  |r|= 1.27  e= [0.00163821 0.05805137 0.17482595 0.17880323 0.21009291 0.21749002
 0.21770242 0.22424096 0.22467826 0.23905995]  max|de|= 0.0469  lindep= 0.0619
Old state -> New state
    3     ->     1 
davidson 33 59  |r|= 1.13  e= [0.09339219 0.16987584 0.17482595 0.17880323 0.21009291 0.21749001
 0.21770242 0.22424096 0.22467826 0.23925313]  max|de|= 0.0918  lindep= 0.132
Old state -> New state
    2     ->     1 
    3     ->     2 
    4     ->     3 
    5     ->     4 
    6     ->     5 
    7     ->     6 
    8     ->     7 
    9     ->     8 
    1     ->     9 
root 4 converged  |r|= 2.24e-06  e= 0.21749001366449855  max|de|= -6.34e-10
davidson 34 65  |r|= 0.947  e= [0.00677248 0.17482595 0.17880323 0.21009292 0.21749001 0.21770242
 0.22424096 0.22467826 0.23951379 0.29581303]  max|de|= 0.126  lindep= 0.0843
Old state -> New state
    9     ->     1 
    1     ->     2 
    2     ->     3 
    3     ->     4 
    4     ->     5 
    5     ->     6 
    6     ->     7 
    7     ->     8 
    8     ->     9 
davidson 35 69  |r|= 1.17  e= [0.06943177 0.12050685 0.17482595 0.17880323 0.21009292 0.21749004
 0.21770242 0.22424096 0.22467827 0.23384817]  max|de|= -0.175  lindep= 0.139
Old state -> New state
    9     ->     4 
    4     ->     5 
    5     ->     6 
    6     ->     7 
    7     ->     8 
    8     ->     9 
davidson 36 75  |r|= 1.27  e= [0.06033674 0.13164983 0.17482595 0.17880323 0.19949001 0.21009292
 0.21749002 0.21770242 0.22424096 0.22467826]  max|de|= -0.0344  lindep= 0.0398
Old state -> New state
    2     ->     1 
    3     ->     2 
    5     ->     3 
    6     ->     4 
    7     ->     5 
    8     ->     6 
    9     ->     7 
    4     ->     8 
    0     ->     9 
root 1 converged  |r|= 2.63e-08  e= 0.17482595222243047  max|de|= -3.07e-10
root 3 converged  |r|= 2.14e-07  e= 0.2100929162440643  max|de|= -1.34e-10
root 4 converged  |r|= 2.19e-06  e= 0.21749002163118603  max|de|= -3.78e-10
root 7 converged  |r|= 1.3e-06  e= 0.224678258594202  max|de|= -4.87e-10
davidson 37 80  |r|=    1  e= [0.02564675 0.17482595 0.17880323 0.21009292 0.21749002 0.21770242
 0.22424096 0.22467826 0.23930657 0.27554159]  max|de|= 0.215  lindep= 0.0484
davidson 38 10  |r|=    1  e= [0.02564675 0.17482595 0.17880323 0.21009292 0.21749002 0.21770242
 0.22424096 0.22467826 0.23930657 0.27554159]  max|de|= 2.57e-11  lindep= 0.311
Old state -> New state
    9     ->     1 
    8     ->     2 
    1     ->     3 
    2     ->     4 
    3     ->     5 
    4     ->     6 
    5     ->     7 
    6     ->     8 
    7     ->     9 
davidson 39 13  |r|= 1.64  e= [0.02437099 0.04198126 0.12252181 0.17482595 0.17880323 0.21009292
 0.21749002 0.21770242 0.22424096 0.22467826]  max|de|= -0.234  lindep= 0.142
Old state -> New state
    0     ->     1 
    3     ->     2 
    4     ->     3 
    5     ->     4 
    6     ->     5 
    7     ->     6 
    8     ->     7 
    9     ->     8 
    1     ->     9 
davidson 40 16  |r|= 0.882  e= [0.01069744 0.02671767 0.17482595 0.17880323 0.21009292 0.21749002
 0.21770242 0.22424096 0.22467826 0.2392743 ]  max|de|= 0.197  lindep= 0.0661
Old state -> New state
    4     ->     1 
davidson 41 19  |r|=  1.3  e= [0.00516333 0.03157951 0.17482595 0.17880323 0.21009292 0.21749003
 0.21770242 0.22424096 0.22467826 0.23926714]  max|de|= -0.179  lindep= 0.22
Old state -> New state
    2     ->     1 
davidson 42 23  |r|= 0.956  e= [0.03405759 0.17482594 0.17493286 0.17880323 0.21009291 0.21749006
 0.21770242 0.22424096 0.22467826 0.2377047 ]  max|de|= 0.0289  lindep= 0.177
Old state -> New state
    9     ->     1 
    1     ->     2 
    8     ->     7 
    7     ->     8 
    8     ->     9 
davidson 43 29  |r|= 1.03  e= [0.01470541 0.1547335  0.17482595 0.17880323 0.21009292 0.21749001
 0.21770242 0.22382709 0.22424096 0.22467829]  max|de|= -0.083  lindep= 0.148
Old state -> New state
    2     ->     1 
    3     ->     2 
    4     ->     3 
    5     ->     4 
    6     ->     5 
    8     ->     6 
    9     ->     7 
    0     ->     8 
    7     ->     9 
root 1 converged  |r|= 1.19e-08  e= 0.17482595211277147  max|de|= -5.2e-11
davidson 44 34  |r|= 1.32  e= [0.08796403 0.17482595 0.17880323 0.21009291 0.21749001 0.21770242
 0.22424096 0.22467825 0.27241703 0.35105096]  max|de|= 0.258  lindep= 0.21
Old state -> New state
    1     ->     2 
    2     ->     3 
    3     ->     4 
    4     ->     5 
    5     ->     6 
    6     ->     7 
    7     ->     8 
    0     ->     9 
davidson 45 39  |r|= 1.19  e= [0.0628146  0.14790521 0.17482595 0.17880323 0.21009292 0.21749002
 0.21770242 0.22424096 0.22467826 0.23926033]  max|de|= 0.151  lindep= 0.162
Old state -> New state
    2     ->     0 
    2     ->     1 
    3     ->     2 
    4     ->     3 
    5     ->     4 
    6     ->     5 
    7     ->     6 
    8     ->     7 
    9     ->     8 
    1     ->     9 
root 3 converged  |r|= 9.8e-08  e= 0.21009291765983634  max|de|= 3.53e-10
root 7 converged  |r|= 2.91e-07  e= 0.22467826053581214  max|de|= 8.99e-10
davidson 46 42  |r|= 0.719  e= [0.16187838 0.17482595 0.17880323 0.21009292 0.21749002 0.21770242
 0.22424096 0.22467826 0.23929826 0.4192279 ]  max|de|= 0.271  lindep= 0.115
root 4 converged  |r|= 1.96e-07  e= 0.21749002099993672  max|de|= 7.32e-10
davidson 47 45  |r|= 1.03  e= [0.03766841 0.17482595 0.17880323 0.21009292 0.21749002 0.21770242
 0.22424096 0.22467826 0.23928753 0.28359139]  max|de|= -0.136  lindep= 0.109
root 7 converged  |r|= 6.38e-08  e= 0.22467825925850793  max|de|= 8.16e-11
davidson 48 48  |r|= 0.972  e= [0.03367611 0.17482595 0.17880323 0.21009292 0.21749002 0.21770242
 0.22424096 0.22467826 0.23927867 0.28383721]  max|de|= -0.00399  lindep= 0.0485
Old state -> New state
    0     ->     3 
    3     ->     4 
    4     ->     5 
    5     ->     6 
    6     ->     7 
    7     ->     8 
    8     ->     9 
davidson 49 51  |r|= 0.998  e= [0.00923165 0.17482595 0.17880323 0.18231466 0.21009292 0.21749002
 0.21770242 0.22424096 0.22467826 0.23927706]  max|de|= 0.149  lindep= 0.0784
Old state -> New state
    4     ->     3 
    5     ->     4 
    6     ->     5 
    7     ->     6 
    8     ->     7 
    9     ->     8 
    3     ->     9 
davidson 50 54  |r|= 1.02  e= [0.07470223 0.17482595 0.17880323 0.21009292 0.21749002 0.21770242
 0.22424096 0.22467826 0.23927091 0.27977138]  max|de|= 0.0975  lindep= 0.158
Old state -> New state
    0     ->     1 
    1     ->     2 
    2     ->     3 
    3     ->     4 
    4     ->     5 
    5     ->     6 
    6     ->     7 
    7     ->     8 
    8     ->     9 
davidson 51 57  |r|= 1.09  e= [0.06184004 0.12250865 0.17482595 0.17880323 0.21009292 0.21749002
 0.21770242 0.22424096 0.22467826 0.23926434]  max|de|= 0.0478  lindep= 0.0766
Old state -> New state
    2     ->     1 
    3     ->     2 
    2     ->     3 
davidson 52 60  |r|= 1.21  e= [0.05878021 0.17482595 0.17880323 0.20360687 0.21009292 0.21749002
 0.21770242 0.22424096 0.22467826 0.23926685]  max|de|= 0.0288  lindep= 0.0385
Old state -> New state
    0     ->     1 
    1     ->     2 
    1     ->     3 
    2     ->     4 
    4     ->     5 
    5     ->     6 
    6     ->     7 
    7     ->     8 
    8     ->     9 
davidson 53 63  |r|= 1.22  e= [0.04892096 0.08283415 0.12487668 0.17482595 0.17880323 0.21009292
 0.21749002 0.21770242 0.22424096 0.22467826]  max|de|= -0.0499  lindep= 0.0866
Old state -> New state
    3     ->     1 
    3     ->     2 
    4     ->     3 
    5     ->     4 
    6     ->     5 
    7     ->     6 
    8     ->     7 
    9     ->     8 
    0     ->     9 
davidson 54 66  |r|= 0.897  e= [0.04505279 0.16923746 0.17482595 0.17880323 0.21009292 0.21749002
 0.21770242 0.22424096 0.22467826 0.23926808]  max|de|= 0.19  lindep= 0.0146
davidson 55 69  |r|= 0.899  e= [0.04355902 0.16664547 0.17482596 0.17880322 0.21009289 0.21749002
 0.21770242 0.22424096 0.22467826 0.23926682]  max|de|= -0.00259  lindep= 0.0145
Old state -> New state
    2     ->     1 
    3     ->     2 
    4     ->     3 
    5     ->     4 
    6     ->     5 
    4     ->     6 
davidson 56 74  |r|= 1.07  e= [0.0553748  0.17482595 0.17880323 0.21009296 0.21749002 0.21770242
 0.22016254 0.22424096 0.22467826 0.23926666]  max|de|= 0.0118  lindep= 0.103
Old state -> New state
    1     ->     0 
    7     ->     6 
    8     ->     7 
    9     ->     8 
    6     ->     9 
davidson 57 78  |r|= 0.408  e= [0.17482626 0.17551588 0.17880349 0.21009209 0.21749002 0.21770242
 0.22424096 0.22467827 0.23926656 0.2792591 ]  max|de|= 0.0591  lindep= 0.139
davidson 58 10  |r|= 0.407  e= [0.17482595 0.17551535 0.17880324 0.21009292 0.21749002 0.21770242
 0.22424096 0.22467826 0.23926658 0.2792588 ]  max|de|= 8.39e-07  lindep= 0.319
Old state -> New state
    3     ->     1 
    0     ->     2 
    2     ->     3 
    3     ->     4 
    4     ->     5 
    5     ->     6 
    6     ->     7 
    7     ->     8 
    8     ->     9 
davidson 59 16  |r|= 1.15  e= [0.1068312  0.17141183 0.17482596 0.17880323 0.21009298 0.21749002
 0.21770242 0.22424096 0.22467826 0.23926679]  max|de|= -0.068  lindep= 0.18
Old state -> New state
    4     ->     0 
    2     ->     1 
    3     ->     2 
    4     ->     3 
    5     ->     4 
    6     ->     5 
    7     ->     6 
    8     ->     7 
    9     ->     8 
    1     ->     9 
root 4 converged  |r|= 2.22e-07  e= 0.217490020183366  max|de|= -3.86e-10
davidson 60 21  |r|= 0.948  e= [0.11497044 0.17482595 0.17880323 0.21009294 0.21749002 0.21770242
 0.22424096 0.22467826 0.2392669  0.30594353]  max|de|= 0.135  lindep= 0.229
Old state -> New state
    1     ->     3 
    3     ->     4 
    4     ->     5 
    5     ->     6 
    6     ->     7 
    7     ->     8 
    8     ->     9 
davidson 61 25  |r|= 1.03  e= [0.0891076  0.17482594 0.17880322 0.1802462  0.2100929  0.21749002
 0.21770242 0.22424096 0.22467826 0.23926672]  max|de|= -0.0259  lindep= 0.219
Old state -> New state
    0     ->     1 
    9     ->     2 
    1     ->     3 
    2     ->     4 
    4     ->     5 
    4     ->     6 
    5     ->     7 
    6     ->     8 
    7     ->     9 
root 7 converged  |r|= 3.21e-07  e= 0.2174900193735063  max|de|= 5.14e-10
davidson 62 31  |r|=  1.3  e= [0.03588846 0.05732064 0.15108908 0.17482595 0.17880323 0.18838125
 0.21009295 0.21749002 0.21770242 0.22424096]  max|de|= -0.0882  lindep= 0.232
Old state -> New state
    2     ->     1 
    3     ->     2 
    4     ->     3 
    6     ->     4 
    7     ->     5 
    8     ->     6 
    9     ->     7 
    5     ->     8 
    2     ->     9 
davidson 63 37  |r|= 1.46  e= [0.02933848 0.08143986 0.17482595 0.17880323 0.21009293 0.21749002
 0.21770242 0.22424096 0.22467826 0.23926673]  max|de|= 0.0882  lindep= 0.058
Old state -> New state
    2     ->     0 
    3     ->     1 
    4     ->     2 
    5     ->     3 
    6     ->     4 
    7     ->     5 
    8     ->     6 
    9     ->     7 
    9     ->     8 
    1     ->     9 
root 3 converged  |r|= 7.9e-08  e= 0.2174900210852529  max|de|= -2.6e-10
root 6 converged  |r|= 5.15e-08  e= 0.22467825874589792  max|de|= 5.72e-10
davidson 64 43  |r|= 0.393  e= [0.17482595 0.17880323 0.21009292 0.21749002 0.21770242 0.22424096
 0.22467826 0.23926663 0.26028695 0.27781033]  max|de|= 0.196  lindep= 0.397
Old state -> New state
    8     ->     0 
    8     ->     1 
    0     ->     2 
    1     ->     3 
    2     ->     4 
    3     ->     5 
    4     ->     6 
    5     ->     7 
    6     ->     8 
    7     ->     9 
root 2 converged  |r|= 2.09e-08  e= 0.17482595223523717  max|de|= 1.35e-10
root 3 converged  |r|= 6.41e-08  e= 0.17880322868231802  max|de|= -6.71e-11
davidson 65 46  |r|= 1.39  e= [0.00408487 0.06913475 0.17482595 0.17880323 0.21009291 0.21749002
 0.21770242 0.22424096 0.22467826 0.23926677]  max|de|= -0.256  lindep= 0.186
Old state -> New state
    2     ->     1 
    3     ->     2 
    4     ->     3 
    5     ->     4 
    6     ->     5 
    7     ->     6 
    8     ->     7 
    9     ->     8 
davidson 66 49  |r|= 0.824  e= [0.1558091  0.17482595 0.17880323 0.21009292 0.21749002 0.21770242
 0.22424096 0.22467826 0.23926658 0.25222638]  max|de|= 0.152  lindep= 0.173
Old state -> New state
    0     ->     1 
    1     ->     2 
    2     ->     3 
    3     ->     4 
    4     ->     5 
    5     ->     6 
    6     ->     7 
    7     ->     8 
    8     ->     9 
root 4 converged  |r|= 1.62e-07  e= 0.21009291652112097  max|de|= 6.45e-11
davidson 67 52  |r|= 1.19  e= [0.07372566 0.1385365  0.17482595 0.17880323 0.21009292 0.21749002
 0.21770242 0.22424096 0.22467826 0.23926663]  max|de|= -0.0821  lindep= 0.173
Old state -> New state
    2     ->     0 
    3     ->     1 
    4     ->     2 
    5     ->     3 
    6     ->     4 
    7     ->     5 
    8     ->     6 
    9     ->     7 
    0     ->     8 
    1     ->     9 
davidson 68 54  |r|= 0.132  e= [0.17482595 0.17880323 0.21009292 0.21749002 0.21770242 0.22424096
 0.22467826 0.23926664 0.27754375 0.28102546]  max|de|= 0.204  lindep= 0.416
Old state -> New state
    8     ->     0 
    0     ->     1 
    1     ->     2 
    7     ->     3 
    2     ->     4 
    3     ->     5 
    4     ->     6 
    5     ->     7 
    6     ->     8 
    7     ->     9 
root 9 converged  |r|= 1.95e-07  e= 0.23926664418925903  max|de|= 8.75e-10
davidson 69 56  |r|= 1.45  e= [0.02210669 0.17482595 0.17880323 0.19919609 0.21009292 0.21749002
 0.21770242 0.22424096 0.22467826 0.23926664]  max|de|= -0.255  lindep= 0.159
Old state -> New state
    1     ->     3 
root 4 converged  |r|= 1.75e-07  e= 0.21009291624506957  max|de|= 7.04e-10
davidson 70 58  |r|= 1.52  e= [0.01300502 0.17482595 0.17880323 0.17936964 0.21009292 0.21749002
 0.21770242 0.22424096 0.22467826 0.23926664]  max|de|= -0.0091  lindep= 0.023
Old state -> New state
    1     ->     0 
    2     ->     1 
    4     ->     2 
    4     ->     3 
    5     ->     4 
    6     ->     5 
    7     ->     6 
    8     ->     7 
    9     ->     8 
    0     ->     9 
davidson 71 60  |r|= 0.157  e= [0.17482595 0.17880323 0.21009293 0.21110258 0.21749002 0.21770242
 0.22424096 0.22467826 0.23926664 0.27797992]  max|de|= 0.265  lindep= 0.133
Old state -> New state
    1     ->     2 
    2     ->     3 
    8     ->     9 
davidson 72 63  |r|= 0.917  e= [0.17482595 0.17880323 0.17930562 0.21009292 0.21749002 0.21770242
 0.22424096 0.22467826 0.22991356 0.23926664]  max|de|= -0.00935  lindep= 0.0897
Old state -> New state
    8     ->     0 
    0     ->     1 
    1     ->     2 
    9     ->     8 
    8     ->     9 
root 3 converged  |r|= 1.29e-08  e= 0.21009291662776086  max|de|= -1.1e-10
davidson 73 65  |r|= 1.39  e= [0.09873123 0.17482595 0.17880323 0.21009292 0.21749002 0.21770242
 0.22424096 0.22467826 0.23926664 0.27755037]  max|de|= -0.131  lindep= 0.126
Old state -> New state
    8     ->     0 
root 2 converged  |r|= 8.23e-09  e= 0.1788032286421952  max|de|= -6.84e-12
root 8 converged  |r|= 1.39e-07  e= 0.23926664406905218  max|de|= 4.86e-11
davidson 74 67  |r|= 1.19  e= [0.09289725 0.17482595 0.17880323 0.21009292 0.21749002 0.21770242
 0.22424096 0.22467826 0.23926664 0.27760337]  max|de|= -0.146  lindep= 0.0992
Old state -> New state
    3     ->     4 
    4     ->     5 
    5     ->     6 
    6     ->     7 
    7     ->     8 
    8     ->     9 
davidson 75 69  |r|= 0.991  e= [0.07782499 0.17482595 0.17880323 0.19951453 0.21009292 0.21749002
 0.21770242 0.22424096 0.22467826 0.23926664]  max|de|= -0.0151  lindep= 0.062
Old state -> New state
    1     ->     2 
    2     ->     3 
davidson 76 71  |r|=  0.9  e= [0.04296196 0.17129808 0.17482595 0.17880323 0.21009292 0.21749002
 0.21770242 0.22424096 0.22467826 0.23926665]  max|de|= -0.0349  lindep= 0.0818
Old state -> New state
    0     ->     1 
davidson 77 73  |r|= 1.42  e= [0.04138138 0.08335333 0.17482595 0.17880323 0.21009292 0.21749002
 0.21770242 0.22424096 0.22467826 0.23926664]  max|de|= 0.0404  lindep= 0.0298
Old state -> New state
    0     ->     1 
root 9 converged  |r|= 1.16e-07  e= 0.2392666434513238  max|de|= -3.98e-10
davidson 78 75  |r|= 1.07  e= [0.0330421  0.07988047 0.17482595 0.17880323 0.21009292 0.21749002
 0.21770242 0.22424096 0.22467826 0.23926664]  max|de|= 0.0385  lindep= 0.0464
Old state -> New state
    0     ->     1 
davidson 79 77  |r|=  1.1  e= [0.01611406 0.16893616 0.17482595 0.17880323 0.21009292 0.21749002
 0.21770242 0.22424096 0.22467826 0.23926664]  max|de|= 0.136  lindep= 0.0357
davidson 80 10  |r|=  1.1  e= [0.01611406 0.16893616 0.17482595 0.17880323 0.21009292 0.21749002
 0.21770242 0.22424096 0.22467826 0.23926664]  max|de|= -2.54e-10  lindep= 0.28
Old state -> New state
    0     ->     1 
davidson 81 12  |r|= 1.62  e= [0.01056827 0.01699637 0.17482595 0.17880323 0.21009292 0.21749002
 0.21770242 0.22424096 0.22467826 0.23926664]  max|de|= -0.00555  lindep= 0.152
Old state -> New state
    0     ->     1 
davidson 82 14  |r|= 1.64  e= [0.00811762 0.01554313 0.17482595 0.17880323 0.21009292 0.21749002
 0.21770242 0.22424096 0.22467826 0.23926664]  max|de|= 0.00497  lindep= 0.139
Old state -> New state
    2     ->     1 
    3     ->     2 
    4     ->     3 
    5     ->     4 
    6     ->     5 
    7     ->     6 
    8     ->     7 
    9     ->     8 
    1     ->     9 
davidson 83 16  |r|= 1.56  e= [0.01138644 0.17482595 0.17880323 0.21009292 0.21749002 0.21770242
 0.22424096 0.22467826 0.23926664 0.35301812]  max|de|= 0.337  lindep= 0.273
Old state -> New state
    8     ->     1 
    1     ->     2 
    2     ->     3 
    3     ->     4 
    4     ->     5 
    5     ->     6 
    6     ->     7 
    7     ->     8 
    8     ->     9 
davidson 84 18  |r|= 1.46  e= [0.01510622 0.07170979 0.17482595 0.17880323 0.21009292 0.21749002
 0.21770242 0.22424096 0.22467826 0.23926664]  max|de|= -0.168  lindep= 0.0379
Old state -> New state
    9     ->     1 
davidson 85 20  |r|= 1.27  e= [0.0099174  0.11289637 0.17482595 0.17880323 0.21009292 0.21749002
 0.21770242 0.22424096 0.22467826 0.23926664]  max|de|= -0.126  lindep= 0.0771
Old state -> New state
    2     ->     0 
    3     ->     1 
    4     ->     2 
    5     ->     3 
    6     ->     4 
    7     ->     6 
    8     ->     7 
    9     ->     8 
    4     ->     9 
davidson 86 22  |r|= 0.866  e= [0.17482595 0.17880323 0.21009292 0.21749002 0.21770242 0.21984362
 0.22424096 0.22467826 0.23926664 0.34518359]  max|de|= 0.135  lindep= 0.221
Old state -> New state
    8     ->     0 
    0     ->     1 
    1     ->     2 
    2     ->     3 
    3     ->     4 
    4     ->     5 
    8     ->     9 
davidson 87 24  |r|=  1.1  e= [0.0218528  0.17482595 0.17880323 0.21009292 0.21749002 0.21770242
 0.22424096 0.22467826 0.23926665 0.24794546]  max|de|= -0.217  lindep= 0.227
Old state -> New state
    0     ->     9 
davidson 88 26  |r|= 1.44  e= [0.1117664  0.17482595 0.17880323 0.21009292 0.21749002 0.21770242
 0.22424096 0.22467826 0.23926664 0.41046916]  max|de|= 0.389  lindep= 0.185
root 8 converged  |r|= 1.04e-07  e= 0.23926664483758567  max|de|= 5.1e-10
davidson 89 28  |r|= 1.31  e= [0.07369081 0.17482595 0.17880323 0.21009292 0.21749002 0.21770242
 0.22424096 0.22467826 0.23926664 0.34216339]  max|de|= -0.0683  lindep= 0.106
Old state -> New state
    0     ->     1 
    1     ->     2 
    2     ->     3 
    3     ->     4 
    4     ->     5 
    5     ->     6 
    6     ->     7 
    7     ->     8 
    8     ->     9 
davidson 90 30  |r|= 1.26  e= [0.00101201 0.03019101 0.17482595 0.17880323 0.21009292 0.21749002
 0.21770242 0.22424096 0.22467826 0.23926665]  max|de|= -0.0727  lindep= 0.117
Old state -> New state
    2     ->     1 
    3     ->     2 
    9     ->     3 
davidson 91 32  |r|= 0.897  e= [0.01581417 0.17482595 0.17880323 0.19312531 0.21009292 0.21749002
 0.21770242 0.22424096 0.22467826 0.23926664]  max|de|= -0.0461  lindep= 0.16
Old state -> New state
    9     ->     1 
    1     ->     2 
    2     ->     3 
davidson 92 34  |r|= 1.48  e= [0.01663065 0.09139844 0.17482595 0.17880323 0.21009292 0.21749002
 0.21770242 0.22424096 0.22467826 0.23926665]  max|de|= -0.148  lindep= 0.122
Old state -> New state
    2     ->     0 
    9     ->     1 
    3     ->     2 
    4     ->     3 
    5     ->     4 
    6     ->     5 
    7     ->     6 
    8     ->     7 
    9     ->     8 
root 8 converged  |r|= 9.89e-08  e= 0.23926664470631298  max|de|= -6.11e-10
davidson 93 36  |r|= 0.964  e= [0.17482595 0.17709464 0.17880323 0.21009292 0.21749002 0.21770242
 0.22424096 0.22467826 0.23926664 0.30840459]  max|de|= 0.0691  lindep= 0.275
Old state -> New state
    1     ->     0 
    0     ->     1 
davidson 94 38  |r|= 1.09  e= [0.07567933 0.17482595 0.17880323 0.21009292 0.21749002 0.21770242
 0.22424096 0.22467826 0.23926664 0.28421967]  max|de|= -0.101  lindep= 0.163
davidson 95 40  |r|= 0.877  e= [0.03281023 0.17482595 0.17880323 0.21009292 0.21749002 0.21770242
 0.22424096 0.22467826 0.23926664 0.28460232]  max|de|= -0.0429  lindep= 0.0533
Old state -> New state
    0     ->     1 
    1     ->     2 
    2     ->     3 
    3     ->     4 
    4     ->     5 
    5     ->     6 
    6     ->     7 
    7     ->     8 
    8     ->     9 
davidson 96 42  |r|= 1.28  e= [0.01943363 0.10267744 0.17482595 0.17880323 0.21009292 0.21749002
 0.21770242 0.22424096 0.22467826 0.23926664]  max|de|= 0.0699  lindep= 0.0541
Old state -> New state
    2     ->     1 
davidson 97 44  |r|= 1.17  e= [0.01771115 0.06735702 0.17482595 0.17880323 0.21009292 0.21749002
 0.21770242 0.22424096 0.22467826 0.23926664]  max|de|= -0.107  lindep= 0.026
Old state -> New state
    2     ->     1 
davidson 98 46  |r|= 0.903  e= [0.00141823 0.16894353 0.17482595 0.17880323 0.21009292 0.21749002
 0.21770242 0.22424096 0.22467826 0.23926664]  max|de|= -0.0163  lindep= 0.0481
Old state -> New state
    9     ->     0 
    2     ->     1 
    3     ->     2 
    4     ->     3 
    5     ->     4 
    6     ->     5 
    7     ->     6 
    8     ->     7 
    9     ->     8 
davidson 99 48  |r|= 1.37  e= [0.07346104 0.17482595 0.17880323 0.21009292 0.21749002 0.21770242
 0.22424096 0.22467826 0.23926665 0.24709329]  max|de|= -0.166  lindep= 0.175
    CPU time for TDDFT   1505.28 sec, wall time     54.03 sec
TD-SCF states [0, 1, 8, 9] not converged.
Excited State energies (eV)
[1.99897667 4.75725647 4.86548368 5.71691944 5.91820493 5.92398452
 6.10190741 6.11380684 6.51077727 6.72375091]
