 
:: initializing oneAPI environment ...
   slurm_script: BASH_VERSION = 4.2.46(1)-release
   args: Using "$@" for setvars.sh arguments: --force
:: advisor -- latest
:: ccl -- latest
:: clck -- latest
:: compiler -- latest
:: dal -- latest
:: debugger -- latest
:: dev-utilities -- latest
:: dnnl -- latest
:: dpcpp-ct -- latest
:: dpl -- latest
:: inspector -- latest
:: intelpython -- latest
:: ipp -- latest
:: ippcp -- latest
:: ipp -- latest
:: itac -- latest
:: mkl -- latest
:: mpi -- latest
:: tbb -- latest
:: vpl -- latest
:: vtune -- latest
:: oneAPI environment initialized ::
 
SLURM_CPUS_PER_TASK = 28
SLURM_MEM_PER_NODE = 127949
#INFO: **** input file is /home/yangjunjie/work/py-ch3-cl/work/step_5/main.py ****
import sys
import pyscf
from pyscf import tdscf

def main(xyz_file, basis="631g*", xc="b3lyp", output="ene.out"):
    xyz = None

    with open(xyz_file, "r") as xyz:
        xyz = xyz.readlines()[2:]
        xyz = "".join(xyz)

    mol = pyscf.gto.Mole()
    mol.atom = xyz
    mol.basis = basis
    mol.verbose = 5
    mol.build()

    if xc is not None and xc != "hf":
        mf = pyscf.scf.RKS(mol)
        mf.xc = xc
        mf.kernel()
    else:
        mf = pyscf.scf.RHF(mol)
        mf.kernel()

    ene_mf = mf.e_tot

    tda = pyscf.tdscf.TDA(mf)
    tda.nstates = 10
    tda.kernel()
    ene_tda = tda.e[:5]
    dip_tda = tda.transition_dipole()[:5]

    rpa = pyscf.tdscf.RPA(mf)
    rpa.nstates = 10
    rpa.kernel()
    ene_rpa = rpa.e[:5]
    dip_rpa = rpa.transition_dipole()[:5]

    with open(output, "w") as f:
        f.write(f"RKS energy: {ene_mf: 12.8f}\n")
        f.write("TDA results:\n")
        for i, (ene, dip) in enumerate(zip(ene_tda, dip_tda)):
            f.write(f" {i:2d} {ene: 12.8f} {dip[0]: 12.8f} {dip[1]: 12.8f} {dip[2]: 12.8f}\n")
        
        f.write("\nRPA results:\n")
        for i, (ene, dip) in enumerate(zip(ene_rpa, dip_rpa)):
            f.write(f" {i:2d} {ene: 12.8f} {dip[0]: 12.8f} {dip[1]: 12.8f} {dip[2]: 12.8f}\n")

if __name__ == "__main__":
    xyz = sys.argv[1]
    main(xyz, basis="631g*", xc="b3lyp", output="out.log")
#INFO: ******************** input file end ********************


System: uname_result(system='Linux', node='pauling047', release='3.10.0-327.36.3.el7.x86_64', version='#1 SMP Thu Oct 20 04:56:07 EDT 2016', machine='x86_64')  Threads 28
Python 3.9.7 (default, Oct 27 2021, 01:23:21) 
[GCC 9.3.0]
numpy 1.21.2  scipy 1.6.2
Date: Tue Sep 27 23:12:29 2022
PySCF version 2.0.1
PySCF path  /home/yangjunjie/packages/pyscf/pyscf-main
GIT ORIG_HEAD 14b880cdc4bf7bb64f3989a147c0b04622efc498
GIT HEAD (branch master) 9d5b5bd309d1cc55fbd1a0ec76e26b5b0c7f76af

[ENV] PYSCF_MAX_MEMORY 127949
[ENV] PYSCF_TMPDIR /scratch/global/yangjunjie/
[CONFIG] conf_file /home/yangjunjie/.pyscf_conf.py
[INPUT] verbose = 5
[INPUT] max_memory = 127949 
[INPUT] num. atoms = 16
[INPUT] num. electrons = 68
[INPUT] charge = 0
[INPUT] spin (= nelec alpha-beta = 2S) = 0
[INPUT] symmetry False subgroup None
[INPUT] Mole.unit = angstrom
[INPUT]  1 C      0.000000010000   1.190548890000   1.010043770000 AA    0.000000018897   2.249811340005   1.908706099123 Bohr
[INPUT]  2 C      0.000000000000   1.189199740000   2.368331490000 AA    0.000000000000   2.247261816004   4.475497888283 Bohr
[INPUT]  3 C      0.000000000000  -0.011524120000   3.083731300000 AA    0.000000000000  -0.021777430627   5.827407598749 Bohr
[INPUT]  4 C     -0.000000010000  -1.202297280000   2.345920710000 AA   -0.000000018897  -2.272012579510   4.433147651845 Bohr
[INPUT]  5 C      0.000000000000  -1.179086310000   0.992028120000 AA    0.000000000000  -2.228150203124   1.874661454667 Bohr
[INPUT]  6 N      0.000000020000   0.011862410000   0.295161480000 AA    0.000000037795   0.022416706077   0.557774359721 Bohr
[INPUT]  7 C     -0.000000090000   0.013825570000  -1.197316680000 AA   -0.000000170075   0.026126540816  -2.262600609574 Bohr
[INPUT]  8 H      0.000000020000   2.078320270000   0.407979280000 AA    0.000000037795   3.927456109432   0.770969103697 Bohr
[INPUT]  9 H      0.000000000000   2.138138550000   2.898986570000 AA    0.000000000000   4.040496275875   5.478290656092 Bohr
[INPUT] 10 H     -0.000000010000  -0.021613270000   4.168143090000 AA   -0.000000018897  -0.040843160956   7.876648888098 Bohr
[INPUT] 11 H     -0.000000020000  -2.160024070000   2.860809890000 AA   -0.000000037795  -4.081853914768   5.406147186547 Bohr
[INPUT] 12 H      0.000000000000  -2.054880240000   0.369901270000 AA    0.000000000000  -3.883160872381   0.699012093429 Bohr
[INPUT] 13 H     -0.000000020000   1.021351270000  -1.587969100000 AA   -0.000000037795   1.930074177277  -3.000826693272 Bohr
[INPUT] 14 H     -0.883539300000  -0.502643680000  -1.591040260000 AA   -1.669647297290  -0.949858893444  -3.006630344557 Bohr
[INPUT] 15 H      0.883539410000  -0.502643680000  -1.591040300000 AA    1.669647505160  -0.949858893444  -3.006630420146 Bohr
[INPUT] 16 Cl    -0.000000010000  -0.000271420000  -4.059925130000 AA   -0.000000018897  -0.000512909465  -7.672146581939 Bohr
[INPUT] ---------------- BASIS SET ---------------- 
[INPUT] l, kappa, [nprim/nctr], expnt,             c_1 c_2 ...
[INPUT] Cl
[INPUT] 0    0    [6    /1   ]  25180.1           0.001833
                                3780.35           0.014034
                                860.474           0.069097
                                242.145           0.237452
                                77.3349           0.483034
                                26.247            0.339856
[INPUT] 0    0    [6    /1   ]  491.765           -0.0022974
                                116.984           -0.030714
                                37.4153           -0.112528
                                13.7834           0.045016
                                5.45215           0.589353
                                2.22588           0.465206
[INPUT] 0    0    [3    /1   ]  3.18649           -0.25183
                                1.14427           0.061589
                                0.420377          1.06018
[INPUT] 0    0    [1    /1   ]  0.142657             1
[INPUT] 1    0    [6    /1   ]  491.765           0.0039894
                                116.984           0.030318
                                37.4153           0.12988
                                13.7834           0.327951
                                5.45215           0.453527
                                2.22588           0.252154
[INPUT] 1    0    [3    /1   ]  3.18649           -0.014299
                                1.14427           0.323572
                                0.420377          0.743507
[INPUT] 1    0    [1    /1   ]  0.142657             1
[INPUT] 2    0    [1    /1   ]  0.75                 1
[INPUT] N
[INPUT] 0    0    [6    /1   ]  4173.511          0.0018348
                                627.4579          0.013995
                                142.9021          0.068587
                                40.23433          0.232241
                                12.82021          0.46907
                                4.390437          0.360455
[INPUT] 0    0    [3    /1   ]  11.626358         -0.114961
                                2.71628           -0.169118
                                0.772218          1.145852
[INPUT] 0    0    [1    /1   ]  0.2120313            1
[INPUT] 1    0    [3    /1   ]  11.626358         0.06758
                                2.71628           0.323907
                                0.772218          0.740895
[INPUT] 1    0    [1    /1   ]  0.2120313            1
[INPUT] 2    0    [1    /1   ]  0.8                  1
[INPUT] H
[INPUT] 0    0    [3    /1   ]  18.731137         0.0334946
                                2.8253937         0.23472695
                                0.6401217         0.81375733
[INPUT] 0    0    [1    /1   ]  0.1612778            1
[INPUT] C
[INPUT] 0    0    [6    /1   ]  3047.5249         0.0018347
                                457.36951         0.0140373
                                103.94869         0.0688426
                                29.210155         0.2321844
                                9.286663          0.4679413
                                3.163927          0.362312
[INPUT] 0    0    [3    /1   ]  7.8682724         -0.1193324
                                1.8812885         -0.1608542
                                0.5442493         1.1434564
[INPUT] 0    0    [1    /1   ]  0.1687144            1
[INPUT] 1    0    [3    /1   ]  7.8682724         0.0689991
                                1.8812885         0.316424
                                0.5442493         0.7443083
[INPUT] 1    0    [1    /1   ]  0.1687144            1
[INPUT] 2    0    [1    /1   ]  0.8                  1

nuclear repulsion = 380.024413067033
number of shells = 66
number of NR pGTOs = 272
number of NR cGTOs = 132
basis = 631g*
ecp = {}
CPU time:         0.36


******** <class 'pyscf.dft.rks.RKS'> ********
method = RKS
initial guess = minao
damping factor = 0
level_shift factor = 0
DIIS = <class 'pyscf.scf.diis.CDIIS'>
diis_start_cycle = 1
diis_space = 8
SCF conv_tol = 1e-09
SCF conv_tol_grad = None
SCF max_cycles = 50
direct_scf = True
direct_scf_tol = 1e-13
chkfile to save SCF result = /scratch/global/yangjunjie/tmp_6h76t26
max_memory 127949 MB (current use 81 MB)
XC library pyscf.dft.libxc version 5.2.0
    S. Lehtola, C. Steigemann, M. J. Oliveira, and M. A. Marques, SoftwareX 7, 1 (2018)
XC functionals = b3lyp
    P. A. M. Dirac, Math. Proc. Cambridge Philos. Soc. 26, 376 (1930)
    F. Bloch, Z. Phys. 57, 545 (1929)
    A. D. Becke, Phys. Rev. A 38, 3098 (1988)
    C. Lee, W. Yang, and R. G. Parr, Phys. Rev. B 37, 785 (1988)
    B. Miehlich, A. Savin, H. Stoll, and H. Preuss, Chem. Phys. Lett. 157, 200 (1989)
    S. H. Vosko, L. Wilk, and M. Nusair, Can. J. Phys. 58, 1200 (1980)
radial grids: 
    Treutler-Ahlrichs [JCP 102, 346 (1995); DOI:10.1063/1.469408] (M4) radial grids
    
becke partition: Becke, JCP 88, 2547 (1988); DOI:10.1063/1.454033
pruning grids: <function nwchem_prune at 0x7fddfadc7ee0>
grids dens level: 3
symmetrized grids: False
atomic radii adjust function: <function treutler_atomic_radii_adjust at 0x7fddfadc7e50>
small_rho_cutoff = 1e-07
Set gradient conv threshold to 3.16228e-05
atom C rad-grids = 75, ang-grids = [ 50  50  50  50  50  50  50  50  50  50  50  50  50  50  50  50  50  50
  50  50  50  50  50  86  86  86  86  86  86  86  86  86  86 266 266 266
 266 266 266 266 302 302 302 302 302 302 302 302 302 302 302 302 302 302
 302 302 302 302 302 302 266 266 266 266 266 266 266 266 266 266 266 266
 266 266 266]
atom N rad-grids = 75, ang-grids = [ 50  50  50  50  50  50  50  50  50  50  50  50  50  50  50  50  50  50
  50  50  50  50  50  86  86  86  86  86  86  86  86  86 266 266 266 266
 266 266 266 302 302 302 302 302 302 302 302 302 302 302 302 302 302 302
 302 302 302 302 266 266 266 266 266 266 266 266 266 266 266 266 266 266
 266 266 266]
atom H rad-grids = 50, ang-grids = [ 50  50  50  50  50  50  50  50  50  50  50  50  50  50  86  86  86  86
 266 266 266 266 302 302 302 302 302 302 302 302 302 302 302 302 302 266
 266 266 266 266 266 266 266 266 266 266 266 266 266 266]
atom Cl rad-grids = 80, ang-grids = [ 50  50  50  50  50  50  50  50  50  50  50  50  50  50  50  50  50  50
  50  50  50  50  50  50  86  86  86  86  86  86  86  86  86  86  86  86
  86 350 350 350 350 350 350 350 350 350 434 434 434 434 434 434 434 434
 434 434 434 434 434 434 434 434 434 434 350 350 350 350 350 350 350 350
 350 350 350 350 350 350 350 350]
tot grids = 196530
Drop grids 33663
    CPU time for setting up grids      3.54 sec, wall time      0.14 sec
nelec by numeric integration = 67.97661585450822
    CPU time for vxc      6.06 sec, wall time      0.22 sec
E1 = -1773.2695005849  Ecoul = 714.5876010847398  Exc = -70.39545372713127
init E= -749.052940160259
cond(S) = 6893.721003558795
    CPU time for initialize scf     17.16 sec, wall time      0.69 sec
  HOMO = -0.303014931662156  LUMO = -0.114641236627285
  mo_energy =
[-1.01593485e+02 -1.44127200e+01 -1.02944144e+01 -1.02940459e+01
 -1.02888914e+01 -1.02867640e+01 -1.02864034e+01 -1.02851570e+01
 -9.53312408e+00 -7.28872650e+00 -7.28872065e+00 -7.28871964e+00
 -1.10951031e+00 -9.60332263e-01 -8.96436659e-01 -8.45907036e-01
 -8.06832185e-01 -7.09782793e-01 -7.08536738e-01 -5.83191330e-01
 -5.40242501e-01 -5.22015851e-01 -4.82870687e-01 -4.81175619e-01
 -4.73308518e-01 -4.32176332e-01 -4.09423576e-01 -4.06462929e-01
 -3.89384154e-01 -3.56032595e-01 -3.54953535e-01 -3.49566772e-01
 -3.11631922e-01 -3.03014932e-01 -1.14641237e-01 -7.34751153e-02
  3.47468428e-02  5.83491663e-02  7.87549946e-02  8.74374015e-02
  1.06812134e-01  1.15510438e-01  1.27199972e-01  1.36476878e-01
  1.40832987e-01  1.54466866e-01  2.20482385e-01  2.28420744e-01
  2.59587496e-01  2.72312775e-01  3.39626930e-01  3.81781086e-01
  4.09938193e-01  4.19914127e-01  4.23922249e-01  4.52889135e-01
  4.57857704e-01  4.68246591e-01  4.97621258e-01  5.11238946e-01
  5.22089311e-01  5.38493933e-01  5.49675081e-01  5.58076757e-01
  5.65914217e-01  5.70069079e-01  5.88782825e-01  6.14656068e-01
  6.53639495e-01  6.74917812e-01  7.15406253e-01  7.64428842e-01
  7.66910467e-01  7.72145227e-01  7.75590206e-01  7.84437845e-01
  8.03399894e-01  8.08440642e-01  8.10239819e-01  8.26317583e-01
  8.56775001e-01  8.62773834e-01  8.89227953e-01  9.01318010e-01
  9.08927254e-01  9.53117178e-01  9.80293532e-01  9.94276394e-01
  1.05114964e+00  1.07380586e+00  1.12247903e+00  1.17341427e+00
  1.17520070e+00  1.20060971e+00  1.28906721e+00  1.34144584e+00
  1.36351214e+00  1.40183437e+00  1.41301417e+00  1.41970820e+00
  1.43196826e+00  1.47184540e+00  1.67370395e+00  1.73194081e+00
  1.79468548e+00  1.84483257e+00  1.84593050e+00  1.84796011e+00
  1.86151063e+00  1.90849870e+00  1.97430141e+00  2.04852396e+00
  2.05132238e+00  2.08348859e+00  2.08435447e+00  2.11244575e+00
  2.16252528e+00  2.23508040e+00  2.24602336e+00  2.25636645e+00
  2.34205917e+00  2.35785884e+00  2.50385831e+00  2.50949224e+00
  2.60505652e+00  2.61840396e+00  2.65684555e+00  2.66459486e+00
  2.71006655e+00  2.78759095e+00  2.96450348e+00  3.34077218e+00]
nelec by numeric integration = 68.00005591248288
    CPU time for vxc      5.87 sec, wall time      0.21 sec
E1 = -1779.9326869015401  Ecoul = 722.7283322373682  Exc = -70.79756340869487
cycle= 1 E= -747.977505005834  delta_E= 1.08  |g|= 0.578  |ddm|= 3.85
    CPU time for cycle= 1      6.37 sec, wall time      0.23 sec
  HOMO = -0.0208162307601261  LUMO = -0.00948972610642912
  mo_energy =
[-1.00946060e+02 -1.46908602e+01 -1.03635182e+01 -1.03600461e+01
 -1.02336104e+01 -1.01958067e+01 -1.01956334e+01 -1.01831989e+01
 -8.93881826e+00 -6.68996731e+00 -6.68981127e+00 -6.68979995e+00
 -1.15738470e+00 -9.01642494e-01 -8.97836436e-01 -7.90670870e-01
 -7.52874162e-01 -7.16709106e-01 -6.18559558e-01 -5.94426040e-01
 -5.86606201e-01 -5.59963389e-01 -5.40375483e-01 -5.27244948e-01
 -4.56782027e-01 -4.36514709e-01 -4.30841108e-01 -4.19406010e-01
 -4.15641156e-01 -3.69179436e-01 -3.65305974e-01 -1.63452567e-01
 -9.35135359e-02 -2.08162308e-02 -9.48972611e-03 -8.51068815e-03
  1.74066903e-02  5.17318235e-02  5.27012682e-02  5.63705239e-02
  8.44921161e-02  1.05407067e-01  1.16452237e-01  1.37912231e-01
  1.45242565e-01  1.77129765e-01  1.80516298e-01  2.13587057e-01
  2.41559096e-01  2.60636023e-01  3.50643589e-01  3.72315045e-01
  4.01150054e-01  4.24573949e-01  4.37930149e-01  4.70845055e-01
  4.83006603e-01  4.98563438e-01  5.19701135e-01  5.36129819e-01
  5.47639254e-01  5.52090320e-01  5.71793430e-01  5.88546204e-01
  6.16363893e-01  6.58230278e-01  6.80440381e-01  7.07327663e-01
  7.15727770e-01  7.31129927e-01  7.37469327e-01  7.40218623e-01
  7.48297798e-01  7.75272364e-01  7.83909487e-01  8.29294389e-01
  8.47780385e-01  8.64077683e-01  8.77252364e-01  9.07287649e-01
  9.18844282e-01  9.33840445e-01  1.00269966e+00  1.01375120e+00
  1.02434048e+00  1.09518628e+00  1.12013609e+00  1.13404597e+00
  1.14452521e+00  1.22790852e+00  1.23883898e+00  1.23926490e+00
  1.24961150e+00  1.25338256e+00  1.28541949e+00  1.34594431e+00
  1.35666813e+00  1.35934585e+00  1.36934318e+00  1.39986493e+00
  1.40674332e+00  1.41685027e+00  1.61651111e+00  1.71853435e+00
  1.76471604e+00  1.79495672e+00  1.83592882e+00  1.83669386e+00
  1.84764704e+00  1.89574370e+00  1.95837879e+00  2.00953951e+00
  2.01864925e+00  2.05179339e+00  2.06637944e+00  2.09632755e+00
  2.15754259e+00  2.21925556e+00  2.24125813e+00  2.28051202e+00
  2.32913877e+00  2.33151687e+00  2.47662354e+00  2.48606029e+00
  2.57614045e+00  2.59511785e+00  2.63845015e+00  2.63991344e+00
  2.69780655e+00  2.76359258e+00  2.93650960e+00  3.32172680e+00]
nelec by numeric integration = 68.00008444341593
    CPU time for vxc      6.26 sec, wall time      0.22 sec
E1 = -1777.019205227873  Ecoul = 724.6272866081722  Exc = -70.51769122400063
cycle= 2 E= -742.885196776669  delta_E= 5.09  |g|= 2.69  |ddm|= 4.96
    CPU time for cycle= 2      6.77 sec, wall time      0.24 sec
  HOMO = -0.177314766210536  LUMO = -0.074968390901437
  mo_energy =
[-1.01282375e+02 -1.45148479e+01 -1.02316074e+01 -1.02298448e+01
 -1.01751873e+01 -1.01409085e+01 -1.01060107e+01 -1.01059932e+01
 -9.23918802e+00 -6.99419419e+00 -6.99418203e+00 -6.99218509e+00
 -1.03781336e+00 -8.13109063e-01 -7.92580785e-01 -7.25092761e-01
 -6.56988910e-01 -6.40421412e-01 -6.30214011e-01 -5.53300045e-01
 -5.02484387e-01 -4.99792559e-01 -4.91257198e-01 -4.55845572e-01
 -4.54018835e-01 -4.07203198e-01 -3.87932288e-01 -3.74661267e-01
 -3.55768751e-01 -2.91078374e-01 -2.76065811e-01 -1.81012075e-01
 -1.77690570e-01 -1.77314766e-01 -7.49683909e-02 -1.30367714e-02
  6.45433107e-02  1.09446818e-01  1.14018752e-01  1.28823527e-01
  1.30327806e-01  1.51629365e-01  1.60773857e-01  1.65831474e-01
  1.76238599e-01  1.82116919e-01  2.49654190e-01  2.70452224e-01
  3.12262982e-01  3.22618635e-01  4.06578692e-01  4.41440268e-01
  4.70662153e-01  4.73363739e-01  5.04476082e-01  5.30646388e-01
  5.37233966e-01  5.43099858e-01  5.56007281e-01  5.67862954e-01
  5.74607526e-01  5.98439044e-01  6.14770545e-01  6.22458541e-01
  6.26649244e-01  6.36455685e-01  6.56989134e-01  6.60992525e-01
  7.24250978e-01  7.31123912e-01  7.70127842e-01  8.01027812e-01
  8.09790834e-01  8.18900873e-01  8.46018582e-01  8.51610500e-01
  8.75312334e-01  8.79289130e-01  9.19903997e-01  9.50457163e-01
  9.69428111e-01  9.92015491e-01  1.01061624e+00  1.02422914e+00
  1.02490053e+00  1.04175823e+00  1.04512366e+00  1.08087870e+00
  1.09384639e+00  1.12794755e+00  1.16886435e+00  1.20651311e+00
  1.22413600e+00  1.25544693e+00  1.31466229e+00  1.35471838e+00
  1.43666348e+00  1.44025944e+00  1.45970167e+00  1.48179589e+00
  1.48915816e+00  1.50826961e+00  1.70926218e+00  1.80720102e+00
  1.83598651e+00  1.87321020e+00  1.89069006e+00  1.89868477e+00
  1.93327513e+00  1.97168279e+00  2.05390310e+00  2.09790545e+00
  2.10262524e+00  2.14406945e+00  2.15213534e+00  2.18434189e+00
  2.24178443e+00  2.29708934e+00  2.30997060e+00  2.33487015e+00
  2.39310503e+00  2.39627069e+00  2.56666327e+00  2.57540405e+00
  2.67068521e+00  2.68561903e+00  2.73287665e+00  2.73557806e+00
  2.78841471e+00  2.84032442e+00  3.02991625e+00  3.41650086e+00]
nelec by numeric integration = 68.00006353748041
    CPU time for vxc      6.06 sec, wall time      0.22 sec
E1 = -1774.6528242971995  Ecoul = 716.9690071146847  Exc = -70.34666815359942
cycle= 3 E= -748.006072269081  delta_E= -5.12  |g|= 0.52  |ddm|= 4.56
    CPU time for cycle= 3      6.59 sec, wall time      0.24 sec
  HOMO = -0.137689832596846  LUMO = -0.118998689580872
  mo_energy =
[-1.01266124e+02 -1.44416431e+01 -1.02945750e+01 -1.02909096e+01
 -1.02889004e+01 -1.02676747e+01 -1.02671939e+01 -1.02011801e+01
 -9.21197212e+00 -6.96770609e+00 -6.96770391e+00 -6.96676847e+00
 -1.03927013e+00 -8.95948794e-01 -8.45731309e-01 -7.52802881e-01
 -7.09259745e-01 -6.87339851e-01 -6.01007524e-01 -5.87955769e-01
 -5.64335227e-01 -5.39837176e-01 -5.09139903e-01 -5.01437929e-01
 -4.95940240e-01 -4.38622895e-01 -4.35195433e-01 -4.15279623e-01
 -4.04116669e-01 -3.44097751e-01 -3.40451835e-01 -1.40811785e-01
 -1.38287031e-01 -1.37689833e-01 -1.18998690e-01 -7.62884728e-02
  3.09453800e-02  6.48601998e-02  8.05601885e-02  9.28163787e-02
  1.09211080e-01  1.31525714e-01  1.35380093e-01  1.51809570e-01
  1.71249599e-01  1.85327827e-01  2.16840596e-01  2.41603403e-01
  2.57572208e-01  2.77964559e-01  3.77005262e-01  4.02140004e-01
  4.38688352e-01  4.57870517e-01  4.74655056e-01  4.93454722e-01
  4.98064295e-01  5.19997358e-01  5.20908487e-01  5.39903832e-01
  5.42132029e-01  5.57780735e-01  5.69613595e-01  5.72007747e-01
  6.00147882e-01  6.01153793e-01  6.05840231e-01  6.75487866e-01
  6.76082688e-01  7.31800066e-01  7.62138178e-01  7.65684200e-01
  7.72372957e-01  7.93912349e-01  8.05216732e-01  8.07419024e-01
  8.49552970e-01  8.58042494e-01  8.88927543e-01  9.07798732e-01
  9.28845364e-01  9.68386869e-01  9.98716644e-01  1.03385124e+00
  1.04346460e+00  1.06949970e+00  1.06951334e+00  1.08324927e+00
  1.09281243e+00  1.10421729e+00  1.14083140e+00  1.16779027e+00
  1.16881672e+00  1.27263491e+00  1.29357120e+00  1.32878439e+00
  1.36868959e+00  1.39737623e+00  1.40083276e+00  1.40448254e+00
  1.42576042e+00  1.45657924e+00  1.66418893e+00  1.74163713e+00
  1.79245211e+00  1.85475882e+00  1.86356338e+00  1.86859264e+00
  1.87183878e+00  1.92610037e+00  1.98069729e+00  2.04590387e+00
  2.06169264e+00  2.08496158e+00  2.09010051e+00  2.11665050e+00
  2.17491241e+00  2.24346523e+00  2.26021854e+00  2.29933715e+00
  2.36707051e+00  2.37641105e+00  2.50328312e+00  2.51051289e+00
  2.60642897e+00  2.61836388e+00  2.66716007e+00  2.67171827e+00
  2.72303232e+00  2.80448914e+00  2.97200177e+00  3.35106702e+00]
nelec by numeric integration = 68.00005943447636
    CPU time for vxc      5.95 sec, wall time      0.21 sec
E1 = -1775.6139269003243  Ecoul = 717.9198333197102  Exc = -70.41422346495901
cycle= 4 E= -748.08390397854  delta_E= -0.0778  |g|= 0.141  |ddm|= 0.796
    CPU time for cycle= 4      6.49 sec, wall time      0.23 sec
  HOMO = -0.165156753164567  LUMO = -0.125969022972649
  mo_energy =
[-1.01374731e+02 -1.44890662e+01 -1.03100004e+01 -1.03099851e+01
 -1.02746275e+01 -1.02742613e+01 -1.02635680e+01 -1.02433593e+01
 -9.29677109e+00 -7.05520643e+00 -7.05413452e+00 -7.05403595e+00
 -1.06117669e+00 -8.97018670e-01 -8.56936519e-01 -7.65494482e-01
 -7.20084572e-01 -6.99071363e-01 -6.28146742e-01 -6.00151170e-01
 -5.71616040e-01 -5.47935841e-01 -5.18960529e-01 -5.14375481e-01
 -5.11110247e-01 -4.46086924e-01 -4.40004979e-01 -4.25572968e-01
 -4.22748450e-01 -3.53220348e-01 -3.49384330e-01 -1.68563288e-01
 -1.65215746e-01 -1.65156753e-01 -1.25969023e-01 -8.22655674e-02
  2.79275294e-02  6.03167652e-02  7.44880350e-02  8.68526997e-02
  1.01813558e-01  1.25835344e-01  1.29488286e-01  1.40600028e-01
  1.58498823e-01  1.72270240e-01  2.09498523e-01  2.30372153e-01
  2.52489458e-01  2.69931422e-01  3.67795859e-01  3.93241919e-01
  4.30232899e-01  4.51025481e-01  4.60254923e-01  4.88282901e-01
  4.88476666e-01  5.13905902e-01  5.15741601e-01  5.35363659e-01
  5.41607663e-01  5.48355789e-01  5.57530122e-01  5.64117935e-01
  5.84033900e-01  5.91470807e-01  5.97230799e-01  6.56130874e-01
  6.67643954e-01  7.15979774e-01  7.50078341e-01  7.66629992e-01
  7.70189232e-01  7.83097829e-01  7.87801248e-01  7.92278865e-01
  8.43890962e-01  8.55730066e-01  8.70395110e-01  8.98711908e-01
  9.22629582e-01  9.55282148e-01  9.83581247e-01  1.02213905e+00
  1.03370520e+00  1.03401461e+00  1.03695162e+00  1.04785441e+00
  1.06457098e+00  1.09837594e+00  1.12143559e+00  1.15764203e+00
  1.15892805e+00  1.25081408e+00  1.27916763e+00  1.32020555e+00
  1.35819094e+00  1.39323055e+00  1.39509466e+00  1.40014178e+00
  1.41763350e+00  1.44300391e+00  1.65418114e+00  1.73542599e+00
  1.78803071e+00  1.83987330e+00  1.85325757e+00  1.85354160e+00
  1.85636255e+00  1.91149723e+00  1.97462309e+00  2.03632018e+00
  2.04940465e+00  2.07649832e+00  2.08257670e+00  2.10750049e+00
  2.16997898e+00  2.23406312e+00  2.25110718e+00  2.27962515e+00
  2.35158664e+00  2.35582254e+00  2.49648510e+00  2.50632635e+00
  2.59693268e+00  2.61094681e+00  2.65811125e+00  2.66447272e+00
  2.71449163e+00  2.78850883e+00  2.96046858e+00  3.34240957e+00]
nelec by numeric integration = 68.00005905530399
    CPU time for vxc      5.95 sec, wall time      0.22 sec
E1 = -1777.1871747466794  Ecoul = 719.6089805699427  Exc = -70.531953184053
cycle= 5 E= -748.085734293757  delta_E= -0.00183  |g|= 0.09  |ddm|= 0.28
    CPU time for cycle= 5      6.47 sec, wall time      0.23 sec
  HOMO = -0.148088624902605  LUMO = -0.127175863003201
  mo_energy =
[-1.01339398e+02 -1.44872176e+01 -1.03086184e+01 -1.03070345e+01
 -1.02851278e+01 -1.02695431e+01 -1.02693996e+01 -1.02294566e+01
 -9.26607595e+00 -7.02402170e+00 -7.02312691e+00 -7.02284095e+00
 -1.05984289e+00 -9.00503736e-01 -8.57026890e-01 -7.65384381e-01
 -7.21670015e-01 -6.99893188e-01 -6.12592248e-01 -5.98983820e-01
 -5.74166171e-01 -5.49975635e-01 -5.20064193e-01 -5.13616397e-01
 -5.12815523e-01 -4.49025684e-01 -4.43375896e-01 -4.25411540e-01
 -4.19595244e-01 -3.55459835e-01 -3.50333887e-01 -1.51296977e-01
 -1.49612416e-01 -1.48088625e-01 -1.27175863e-01 -8.29480801e-02
  2.50391195e-02  5.72657609e-02  7.27020526e-02  8.45434168e-02
  1.00238891e-01  1.23434327e-01  1.26602688e-01  1.42836988e-01
  1.60551135e-01  1.75635292e-01  2.07060120e-01  2.29924460e-01
  2.49909594e-01  2.68771112e-01  3.66443324e-01  3.92812355e-01
  4.28887534e-01  4.48000955e-01  4.65303904e-01  4.86277729e-01
  4.86908359e-01  5.12280235e-01  5.14951483e-01  5.34808485e-01
  5.37137523e-01  5.50856327e-01  5.59631589e-01  5.65886908e-01
  5.94260208e-01  5.94898666e-01  5.99705673e-01  6.64931349e-01
  6.67198025e-01  7.20204180e-01  7.51664429e-01  7.63872903e-01
  7.65175000e-01  7.84045278e-01  7.88882598e-01  7.95562299e-01
  8.41937377e-01  8.52038241e-01  8.74480520e-01  8.99248315e-01
  9.20366415e-01  9.55017078e-01  9.86223902e-01  1.02424201e+00
  1.03436347e+00  1.05518705e+00  1.05531810e+00  1.06777090e+00
  1.08011469e+00  1.09712261e+00  1.12703781e+00  1.15691882e+00
  1.15722494e+00  1.25964703e+00  1.27969904e+00  1.31791444e+00
  1.35769684e+00  1.39055961e+00  1.39109732e+00  1.39527486e+00
  1.41639973e+00  1.44247215e+00  1.65230810e+00  1.73354639e+00
  1.78499339e+00  1.84148321e+00  1.85206367e+00  1.85502834e+00
  1.85555369e+00  1.91291798e+00  1.97249859e+00  2.03448824e+00
  2.04930697e+00  2.07408337e+00  2.08082877e+00  2.10642107e+00
  2.16673962e+00  2.23221322e+00  2.24986167e+00  2.28321276e+00
  2.35323222e+00  2.35801666e+00  2.49468295e+00  2.50297944e+00
  2.59468292e+00  2.60841894e+00  2.65678928e+00  2.66208849e+00
  2.71308103e+00  2.78999500e+00  2.95942125e+00  3.34061051e+00]
nelec by numeric integration = 68.00005895714887
    CPU time for vxc      6.26 sec, wall time      0.22 sec
E1 = -1776.7717544895527  Ecoul = 719.1439560111953  Exc = -70.48079508727746
cycle= 6 E= -748.084180498602  delta_E= 0.00155  |g|= 0.101  |ddm|= 0.49
    CPU time for cycle= 6      7.29 sec, wall time      0.26 sec
  HOMO = -0.1505411033679  LUMO = -0.124282645560649
  mo_energy =
[-1.01337827e+02 -1.44798248e+01 -1.03045868e+01 -1.03030498e+01
 -1.02766542e+01 -1.02671674e+01 -1.02667755e+01 -1.02259599e+01
 -9.26592275e+00 -7.02409036e+00 -7.02270639e+00 -7.02231117e+00
 -1.05570535e+00 -8.96665295e-01 -8.53861966e-01 -7.62136603e-01
 -7.18304506e-01 -6.96923077e-01 -6.12900967e-01 -5.97737862e-01
 -5.70453234e-01 -5.47614746e-01 -5.17420122e-01 -5.10297895e-01
 -5.09439190e-01 -4.45707592e-01 -4.40383817e-01 -4.23080945e-01
 -4.18019791e-01 -3.52167212e-01 -3.47509168e-01 -1.53262526e-01
 -1.51322258e-01 -1.50541103e-01 -1.24282646e-01 -7.98679725e-02
  2.71926808e-02  6.04392021e-02  7.44251620e-02  8.63851683e-02
  1.02461790e-01  1.25225498e-01  1.29102661e-01  1.43846688e-01
  1.62089225e-01  1.76331338e-01  2.10006647e-01  2.32677269e-01
  2.52553764e-01  2.71065049e-01  3.68680882e-01  3.95397599e-01
  4.31533240e-01  4.51050045e-01  4.66438281e-01  4.88774385e-01
  4.90104543e-01  5.14760000e-01  5.17179919e-01  5.37086144e-01
  5.40131585e-01  5.51587281e-01  5.61451405e-01  5.67512113e-01
  5.93962840e-01  5.96806989e-01  5.98842859e-01  6.64943996e-01
  6.69152641e-01  7.21470575e-01  7.53724258e-01  7.67145942e-01
  7.67269845e-01  7.85702004e-01  7.91847361e-01  7.96429457e-01
  8.44509692e-01  8.54647570e-01  8.75741108e-01  9.00887473e-01
  9.22856733e-01  9.57454065e-01  9.87376564e-01  1.02599440e+00
  1.03701461e+00  1.05256807e+00  1.05276964e+00  1.06536656e+00
  1.07914194e+00  1.09942241e+00  1.12805589e+00  1.15984868e+00
  1.16059810e+00  1.25960153e+00  1.28294211e+00  1.32086551e+00
  1.36084422e+00  1.39308177e+00  1.39504294e+00  1.39926735e+00
  1.41937128e+00  1.44540657e+00  1.65565699e+00  1.73703502e+00
  1.78816193e+00  1.84482786e+00  1.85535594e+00  1.85787577e+00
  1.85825817e+00  1.91554042e+00  1.97599126e+00  2.03822129e+00
  2.05245199e+00  2.07774276e+00  2.08413997e+00  2.10958182e+00
  2.17037271e+00  2.23569458e+00  2.25298450e+00  2.28529423e+00
  2.35600104e+00  2.36110147e+00  2.49787107e+00  2.50665405e+00
  2.59828478e+00  2.61205211e+00  2.66025007e+00  2.66582076e+00
  2.71662603e+00  2.79315044e+00  2.96301176e+00  3.34425274e+00]
nelec by numeric integration = 68.00005923378752
    CPU time for vxc      6.53 sec, wall time      0.23 sec
E1 = -1776.6193605607564  Ecoul = 718.9825455586358  Exc = -70.47586950772431
cycle= 7 E= -748.088271442812  delta_E= -0.00409  |g|= 0.0477  |ddm|= 0.122
    CPU time for cycle= 7      7.40 sec, wall time      0.26 sec
  HOMO = -0.155908626762403  LUMO = -0.122510298316396
  mo_energy =
[-1.01344507e+02 -1.44781020e+01 -1.03002508e+01 -1.02991178e+01
 -1.02744201e+01 -1.02642713e+01 -1.02639996e+01 -1.02267708e+01
 -9.27262538e+00 -7.03096235e+00 -7.02930838e+00 -7.02891849e+00
 -1.05344197e+00 -8.94162385e-01 -8.50812560e-01 -7.60749499e-01
 -7.15621537e-01 -6.94667389e-01 -6.16998731e-01 -5.96945772e-01
 -5.67647527e-01 -5.45118257e-01 -5.14502699e-01 -5.08433447e-01
 -5.07958963e-01 -4.43307908e-01 -4.37863292e-01 -4.21942684e-01
 -4.17868143e-01 -3.50374023e-01 -3.44611682e-01 -1.58373253e-01
 -1.56053610e-01 -1.55908627e-01 -1.22510298e-01 -7.69754888e-02
  2.91945895e-02  6.30477763e-02  7.64677052e-02  8.79518317e-02
  1.04289132e-01  1.27285561e-01  1.30928129e-01  1.43900587e-01
  1.62592730e-01  1.75923862e-01  2.12270312e-01  2.34235460e-01
  2.54801717e-01  2.72957330e-01  3.70538747e-01  3.97534843e-01
  4.33873443e-01  4.53573829e-01  4.65994072e-01  4.90396443e-01
  4.92809989e-01  5.17342556e-01  5.18694300e-01  5.38339072e-01
  5.42733787e-01  5.51537257e-01  5.62373283e-01  5.67688127e-01
  5.91259030e-01  5.96152433e-01  5.99547817e-01  6.62918592e-01
  6.70673567e-01  7.21415053e-01  7.54961256e-01  7.69447646e-01
  7.69751622e-01  7.86793069e-01  7.93134223e-01  7.96698525e-01
  8.46285170e-01  8.56930197e-01  8.75457059e-01  9.01528238e-01
  9.24915314e-01  9.59339843e-01  9.87343432e-01  1.02722011e+00
  1.03909222e+00  1.04624646e+00  1.04651796e+00  1.05950769e+00
  1.07506229e+00  1.10117014e+00  1.12736850e+00  1.16176208e+00
  1.16344181e+00  1.25751430e+00  1.28487855e+00  1.32276298e+00
  1.36331036e+00  1.39550830e+00  1.39792809e+00  1.40205174e+00
  1.42245921e+00  1.44750064e+00  1.65831236e+00  1.73959761e+00
  1.79041899e+00  1.84634417e+00  1.85767116e+00  1.85967300e+00
  1.85984236e+00  1.91739061e+00  1.97884227e+00  2.04087393e+00
  2.05472359e+00  2.08036313e+00  2.08644300e+00  2.11233306e+00
  2.17266245e+00  2.23788019e+00  2.25605992e+00  2.28575457e+00
  2.35771458e+00  2.36248808e+00  2.50067869e+00  2.50909500e+00
  2.60117550e+00  2.61472519e+00  2.66305511e+00  2.66859999e+00
  2.71919760e+00  2.79486679e+00  2.96565232e+00  3.34703781e+00]
nelec by numeric integration = 68.00005924659825
    CPU time for vxc      6.07 sec, wall time      0.22 sec
E1 = -1776.628909467217  Ecoul = 718.9982763091443  Exc = -70.48336131274839
cycle= 8 E= -748.089581403788  delta_E= -0.00131  |g|= 0.00666  |ddm|= 0.133
    CPU time for cycle= 8      6.58 sec, wall time      0.24 sec
  HOMO = -0.155919565452024  LUMO = -0.121709160437757
  mo_energy =
[-1.01342160e+02 -1.44764761e+01 -1.03004589e+01 -1.02991904e+01
 -1.02719233e+01 -1.02638257e+01 -1.02634915e+01 -1.02258039e+01
 -9.27105869e+00 -7.02933140e+00 -7.02765752e+00 -7.02727210e+00
 -1.05275240e+00 -8.93228373e-01 -8.50405779e-01 -7.60032279e-01
 -7.14938029e-01 -6.94150566e-01 -6.16784909e-01 -5.96368560e-01
 -5.66908542e-01 -5.44578906e-01 -5.14130385e-01 -5.07861338e-01
 -5.07140838e-01 -4.42613955e-01 -4.37154436e-01 -4.21432839e-01
 -4.17555915e-01 -3.49593828e-01 -3.44199351e-01 -1.58327940e-01
 -1.56035644e-01 -1.55919565e-01 -1.21709160e-01 -7.64835734e-02
  2.97110441e-02  6.37440819e-02  7.67930674e-02  8.83345961e-02
  1.04761487e-01  1.27655383e-01  1.31546504e-01  1.44110685e-01
  1.62884924e-01  1.76034976e-01  2.12897510e-01  2.34827228e-01
  2.55398573e-01  2.73415363e-01  3.70978124e-01  3.97987981e-01
  4.34287156e-01  4.54209428e-01  4.66270650e-01  4.90994242e-01
  4.93307386e-01  5.17762688e-01  5.19215565e-01  5.38825569e-01
  5.43469614e-01  5.52006729e-01  5.62678801e-01  5.68091674e-01
  5.91296572e-01  5.96419634e-01  6.00036124e-01  6.63075228e-01
  6.71094387e-01  7.21671358e-01  7.55334216e-01  7.69985651e-01
  7.70534487e-01  7.87109583e-01  7.93699321e-01  7.96973428e-01
  8.46873726e-01  8.57576499e-01  8.75733066e-01  9.01966760e-01
  9.25411227e-01  9.59790804e-01  9.87591761e-01  1.02760144e+00
  1.03970150e+00  1.04641511e+00  1.04668757e+00  1.05970113e+00
  1.07529068e+00  1.10176383e+00  1.12777455e+00  1.16231759e+00
  1.16412587e+00  1.25770506e+00  1.28547669e+00  1.32342039e+00
  1.36391146e+00  1.39603800e+00  1.39877389e+00  1.40295688e+00
  1.42294649e+00  1.44806321e+00  1.65894541e+00  1.74030580e+00
  1.79113483e+00  1.84701575e+00  1.85842604e+00  1.86012210e+00
  1.86042753e+00  1.91785445e+00  1.97947495e+00  2.04158045e+00
  2.05529491e+00  2.08110031e+00  2.08714605e+00  2.11289570e+00
  2.17351621e+00  2.23863842e+00  2.25656866e+00  2.28617061e+00
  2.35817041e+00  2.36305633e+00  2.50126446e+00  2.50994530e+00
  2.60185774e+00  2.61546439e+00  2.66366573e+00  2.66933376e+00
  2.71990635e+00  2.79548220e+00  2.96630171e+00  3.34774571e+00]
nelec by numeric integration = 68.00005931408819
    CPU time for vxc      5.96 sec, wall time      0.21 sec
E1 = -1776.5907248389228  Ecoul = 718.956986763812  Exc = -70.48026776205872
cycle= 9 E= -748.089592770137  delta_E= -1.14e-05  |g|= 0.000735  |ddm|= 0.00751
    CPU time for cycle= 9      6.49 sec, wall time      0.23 sec
  HOMO = -0.155825517467655  LUMO = -0.121725741721916
  mo_energy =
[-1.01342013e+02 -1.44766190e+01 -1.03003322e+01 -1.02991057e+01
 -1.02719465e+01 -1.02640963e+01 -1.02637029e+01 -1.02258531e+01
 -9.27091737e+00 -7.02918491e+00 -7.02751765e+00 -7.02713290e+00
 -1.05276701e+00 -8.93304060e-01 -8.50431958e-01 -7.60060022e-01
 -7.14998729e-01 -6.94177123e-01 -6.16698298e-01 -5.96376395e-01
 -5.66972820e-01 -5.44657098e-01 -5.14158932e-01 -5.07875083e-01
 -5.07181692e-01 -4.42673567e-01 -4.37229400e-01 -4.21449682e-01
 -4.17540646e-01 -3.49636199e-01 -3.44232790e-01 -1.58235327e-01
 -1.55944049e-01 -1.55825517e-01 -1.21725742e-01 -7.65366483e-02
  2.96700211e-02  6.36844735e-02  7.67604384e-02  8.83262399e-02
  1.04738034e-01  1.27620736e-01  1.31503811e-01  1.44121214e-01
  1.62885382e-01  1.76063053e-01  2.12856626e-01  2.34800753e-01
  2.55346820e-01  2.73382284e-01  3.70954923e-01  3.97963358e-01
  4.34284704e-01  4.54160495e-01  4.66288537e-01  4.90960605e-01
  4.93313965e-01  5.17731455e-01  5.19177456e-01  5.38789451e-01
  5.43406754e-01  5.51982192e-01  5.62672272e-01  5.68095575e-01
  5.91343829e-01  5.96450666e-01  5.99995757e-01  6.63123072e-01
  6.71069063e-01  7.21695140e-01  7.55326711e-01  7.69928057e-01
  7.70444264e-01  7.87105114e-01  7.93684229e-01  7.96981237e-01
  8.46834568e-01  8.57509606e-01  8.75755827e-01  9.01947303e-01
  9.25390533e-01  9.59772737e-01  9.87620896e-01  1.02758143e+00
  1.03967313e+00  1.04653157e+00  1.04680312e+00  1.05981443e+00
  1.07536443e+00  1.10171642e+00  1.12779225e+00  1.16227759e+00
  1.16408268e+00  1.25776212e+00  1.28545557e+00  1.32338520e+00
  1.36385332e+00  1.39600444e+00  1.39872905e+00  1.40289857e+00
  1.42289186e+00  1.44803475e+00  1.65890369e+00  1.74025678e+00
  1.79108795e+00  1.84698664e+00  1.85836118e+00  1.86013146e+00
  1.86039667e+00  1.91783229e+00  1.97943806e+00  2.04154754e+00
  2.05526315e+00  2.08105504e+00  2.08709807e+00  2.11284873e+00
  2.17346319e+00  2.23859327e+00  2.25651488e+00  2.28618073e+00
  2.35817069e+00  2.36304809e+00  2.50122462e+00  2.50988296e+00
  2.60180386e+00  2.61541202e+00  2.66362393e+00  2.66928002e+00
  2.71984968e+00  2.79544702e+00  2.96625691e+00  3.34768705e+00]
nelec by numeric integration = 68.00005930217226
    CPU time for vxc      5.94 sec, wall time      0.21 sec
E1 = -1776.5903913593788  Ecoul = 718.9566480333553  Exc = -70.4802625369357
cycle= 10 E= -748.089592795926  delta_E= -2.58e-08  |g|= 0.000516  |ddm|= 0.00188
    CPU time for cycle= 10      6.45 sec, wall time      0.23 sec
  HOMO = -0.155913643398908  LUMO = -0.121731346775365
  mo_energy =
[-1.01342235e+02 -1.44765650e+01 -1.03004223e+01 -1.02991677e+01
 -1.02719786e+01 -1.02640023e+01 -1.02636517e+01 -1.02258914e+01
 -9.27110053e+00 -7.02937181e+00 -7.02770389e+00 -7.02732007e+00
 -1.05276740e+00 -8.93289697e-01 -8.50428950e-01 -7.60060380e-01
 -7.14990540e-01 -6.94174820e-01 -6.16786184e-01 -5.96390411e-01
 -5.66964414e-01 -5.44643997e-01 -5.14156497e-01 -5.07871870e-01
 -5.07178880e-01 -4.42667298e-01 -4.37217149e-01 -4.21445971e-01
 -4.17544062e-01 -3.49627340e-01 -3.44227302e-01 -1.58322859e-01
 -1.56022725e-01 -1.55913643e-01 -1.21731347e-01 -7.65312777e-02
  2.96791182e-02  6.36947941e-02  7.67697866e-02  8.83290943e-02
  1.04744149e-01  1.27629849e-01  1.31510973e-01  1.44117231e-01
  1.62882847e-01  1.76056910e-01  2.12865409e-01  2.34803989e-01
  2.55353878e-01  2.73387501e-01  3.70960626e-01  3.97970622e-01
  4.34282675e-01  4.54168185e-01  4.66262295e-01  4.90966950e-01
  4.93306401e-01  5.17739282e-01  5.19176968e-01  5.38782101e-01
  5.43415845e-01  5.51971044e-01  5.62661595e-01  5.68076939e-01
  5.91291559e-01  5.96413092e-01  6.00004992e-01  6.63081596e-01
  6.71071655e-01  7.21676431e-01  7.55319754e-01  7.69936491e-01
  7.70462639e-01  7.87092071e-01  7.93692195e-01  7.96964182e-01
  8.46840940e-01  8.57521135e-01  8.75747096e-01  9.01945530e-01
  9.25392812e-01  9.59775739e-01  9.87614805e-01  1.02757185e+00
  1.03967637e+00  1.04642088e+00  1.04669373e+00  1.05971234e+00
  1.07528497e+00  1.10172023e+00  1.12776156e+00  1.16228598e+00
  1.16408816e+00  1.25772416e+00  1.28545539e+00  1.32339182e+00
  1.36386351e+00  1.39601187e+00  1.39873061e+00  1.40290839e+00
  1.42290070e+00  1.44804109e+00  1.65891112e+00  1.74026294e+00
  1.79109691e+00  1.84698780e+00  1.85837343e+00  1.86012159e+00
  1.86039709e+00  1.91783172e+00  1.97944060e+00  2.04154855e+00
  2.05526700e+00  2.08106138e+00  2.08710633e+00  2.11285507e+00
  2.17346908e+00  2.23859907e+00  2.25652318e+00  2.28617403e+00
  2.35816213e+00  2.36304622e+00  2.50122811e+00  2.50989415e+00
  2.60181083e+00  2.61541856e+00  2.66362636e+00  2.66928572e+00
  2.71985571e+00  2.79544919e+00  2.96625966e+00  3.34769263e+00]
nelec by numeric integration = 68.0000593044998
    CPU time for vxc      7.96 sec, wall time      0.29 sec
E1 = -1776.5922950957574  Ecoul = 718.9587674838093  Exc = -70.48047833203621
cycle= 11 E= -748.089592876952  delta_E= -8.1e-08  |g|= 0.000298  |ddm|= 0.00202
    CPU time for cycle= 11      8.48 sec, wall time      0.31 sec
  HOMO = -0.155886987168131  LUMO = -0.12173933275056
  mo_energy =
[-1.01342184e+02 -1.44765967e+01 -1.03004158e+01 -1.02991783e+01
 -1.02719840e+01 -1.02640261e+01 -1.02636580e+01 -1.02258860e+01
 -9.27105451e+00 -7.02932492e+00 -7.02765768e+00 -7.02727365e+00
 -1.05278355e+00 -8.93301485e-01 -8.50440337e-01 -7.60067936e-01
 -7.15001787e-01 -6.94183051e-01 -6.16761828e-01 -5.96392754e-01
 -5.66975329e-01 -5.44651337e-01 -5.14166355e-01 -5.07884189e-01
 -5.07187314e-01 -4.42675787e-01 -4.37225961e-01 -4.21452706e-01
 -4.17548132e-01 -3.49638038e-01 -3.44237448e-01 -1.58297748e-01
 -1.55998350e-01 -1.55886987e-01 -1.21739333e-01 -7.65415074e-02
  2.96727649e-02  6.36854990e-02  7.67630102e-02  8.83239729e-02
  1.04736986e-01  1.27623855e-01  1.31504700e-01  1.44114629e-01
  1.62878788e-01  1.76054759e-01  2.12855854e-01  2.34795968e-01
  2.55346843e-01  2.73379988e-01  3.70953638e-01  3.97959963e-01
  4.34274515e-01  4.54158952e-01  4.66265360e-01  4.90960113e-01
  4.93295602e-01  5.17730021e-01  5.19172860e-01  5.38781643e-01
  5.43407369e-01  5.51970606e-01  5.62659800e-01  5.68078880e-01
  5.91304548e-01  5.96422762e-01  5.99996356e-01  6.63090034e-01
  6.71066547e-01  7.21676307e-01  7.55315255e-01  7.69930263e-01
  7.70453815e-01  7.87091881e-01  7.93680495e-01  7.96963483e-01
  8.46834041e-01  8.57513987e-01  8.75744401e-01  9.01942895e-01
  9.25386307e-01  9.59767793e-01  9.87612486e-01  1.02756999e+00
  1.03966843e+00  1.04645372e+00  1.04672628e+00  1.05974241e+00
  1.07530636e+00  1.10171478e+00  1.12776578e+00  1.16227665e+00
  1.16407634e+00  1.25773193e+00  1.28544491e+00  1.32338271e+00
  1.36385235e+00  1.39600272e+00  1.39872120e+00  1.40289559e+00
  1.42288931e+00  1.44802999e+00  1.65889944e+00  1.74025227e+00
  1.79108740e+00  1.84697751e+00  1.85836254e+00  1.86011552e+00
  1.86038948e+00  1.91782368e+00  1.97942973e+00  2.04153727e+00
  2.05525588e+00  2.08104988e+00  2.08709528e+00  2.11284488e+00
  2.17346044e+00  2.23858907e+00  2.25651248e+00  2.28617046e+00
  2.35815476e+00  2.36303629e+00  2.50121818e+00  2.50988264e+00
  2.60180001e+00  2.61540736e+00  2.66361594e+00  2.66927480e+00
  2.71984533e+00  2.79543923e+00  2.96624887e+00  3.34768213e+00]
nelec by numeric integration = 68.00005930407721
    CPU time for vxc      5.88 sec, wall time      0.21 sec
E1 = -1776.592178673441  Ecoul = 718.9586122969718  Exc = -70.48043960668372
cycle= 12 E= -748.08959291612  delta_E= -3.92e-08  |g|= 8.56e-05  |ddm|= 0.000521
    CPU time for cycle= 12      6.39 sec, wall time      0.23 sec
  HOMO = -0.155873651391958  LUMO = -0.121744119911548
  mo_energy =
[-1.01342170e+02 -1.44766086e+01 -1.03004273e+01 -1.02991748e+01
 -1.02719909e+01 -1.02640279e+01 -1.02636714e+01 -1.02258918e+01
 -9.27103963e+00 -7.02930973e+00 -7.02764321e+00 -7.02725904e+00
 -1.05279109e+00 -8.93308651e-01 -8.50447214e-01 -7.60073772e-01
 -7.15008825e-01 -6.94189204e-01 -6.16750522e-01 -5.96396045e-01
 -5.66982517e-01 -5.44657860e-01 -5.14172773e-01 -5.07890741e-01
 -5.07193226e-01 -4.42682300e-01 -4.37232696e-01 -4.21457545e-01
 -4.17551829e-01 -3.49644104e-01 -3.44244047e-01 -1.58285305e-01
 -1.55986617e-01 -1.55873651e-01 -1.21744120e-01 -7.65482615e-02
  2.96674402e-02  6.36788254e-02  7.67579386e-02  8.83199701e-02
  1.04731797e-01  1.27618758e-01  1.31499634e-01  1.44112637e-01
  1.62875831e-01  1.76053816e-01  2.12850090e-01  2.34790485e-01
  2.55340033e-01  2.73375246e-01  3.70948367e-01  3.97954142e-01
  4.34268550e-01  4.54152566e-01  4.66265729e-01  4.90955010e-01
  4.93289446e-01  5.17724263e-01  5.19169550e-01  5.38778405e-01
  5.43401637e-01  5.51969222e-01  5.62658162e-01  5.68079349e-01
  5.91310610e-01  5.96426974e-01  5.99991233e-01  6.63093994e-01
  6.71061341e-01  7.21675042e-01  7.55311421e-01  7.69923818e-01
  7.70448537e-01  7.87089259e-01  7.93674876e-01  7.96962790e-01
  8.46828714e-01  8.57508291e-01  8.75742379e-01  9.01940265e-01
  9.25381278e-01  9.59762073e-01  9.87610456e-01  1.02756717e+00
  1.03966303e+00  1.04646943e+00  1.04674180e+00  1.05975673e+00
  1.07531590e+00  1.10171022e+00  1.12776625e+00  1.16227045e+00
  1.16406901e+00  1.25773553e+00  1.28543833e+00  1.32337655e+00
  1.36384546e+00  1.39599637e+00  1.39871280e+00  1.40288967e+00
  1.42288229e+00  1.44802346e+00  1.65889228e+00  1.74024556e+00
  1.79108090e+00  1.84697091e+00  1.85835665e+00  1.86010968e+00
  1.86038278e+00  1.91781775e+00  1.97942303e+00  2.04153001e+00
  2.05524971e+00  2.08104323e+00  2.08708928e+00  2.11283837e+00
  2.17345268e+00  2.23858213e+00  2.25650558e+00  2.28616575e+00
  2.35814966e+00  2.36303019e+00  2.50121084e+00  2.50987642e+00
  2.60179269e+00  2.61540028e+00  2.66360924e+00  2.66926782e+00
  2.71983838e+00  2.79543303e+00  2.96624204e+00  3.34767508e+00]
nelec by numeric integration = 68.00005930381413
    CPU time for vxc      5.98 sec, wall time      0.22 sec
E1 = -1776.5922001868946  Ecoul = 718.958622308181  Exc = -70.48042810844898
cycle= 13 E= -748.08959292013  delta_E= -4.01e-09  |g|= 2.63e-05  |ddm|= 0.000287
    CPU time for cycle= 13      6.51 sec, wall time      0.23 sec
  HOMO = -0.155874768595063  LUMO = -0.121744491932687
  mo_energy =
[-1.01342176e+02 -1.44766070e+01 -1.03004229e+01 -1.02991801e+01
 -1.02719931e+01 -1.02640338e+01 -1.02636697e+01 -1.02258920e+01
 -9.27104451e+00 -7.02931472e+00 -7.02764830e+00 -7.02726409e+00
 -1.05279088e+00 -8.93309744e-01 -8.50447940e-01 -7.60074137e-01
 -7.15009380e-01 -6.94189860e-01 -6.16751906e-01 -5.96396844e-01
 -5.66983385e-01 -5.44658604e-01 -5.14173422e-01 -5.07890778e-01
 -5.07193702e-01 -4.42683158e-01 -4.37233566e-01 -4.21458154e-01
 -4.17551860e-01 -3.49644732e-01 -3.44244787e-01 -1.58286467e-01
 -1.55987850e-01 -1.55874769e-01 -1.21744492e-01 -7.65491366e-02
  2.96669118e-02  6.36780358e-02  7.67574695e-02  8.83196132e-02
  1.04731448e-01  1.27618295e-01  1.31499009e-01  1.44112621e-01
  1.62875770e-01  1.76053719e-01  2.12849272e-01  2.34790132e-01
  2.55339883e-01  2.73374509e-01  3.70947928e-01  3.97953585e-01
  4.34268284e-01  4.54151837e-01  4.66265421e-01  4.90954375e-01
  4.93289128e-01  5.17723370e-01  5.19168508e-01  5.38778059e-01
  5.43400232e-01  5.51968395e-01  5.62657314e-01  5.68078417e-01
  5.91310034e-01  5.96426355e-01  5.99990218e-01  6.63093591e-01
  6.71061170e-01  7.21674886e-01  7.55311245e-01  7.69923579e-01
  7.70446700e-01  7.87089071e-01  7.93674955e-01  7.96961835e-01
  8.46828202e-01  8.57507291e-01  8.75742278e-01  9.01939560e-01
  9.25380524e-01  9.59761895e-01  9.87610219e-01  1.02756633e+00
  1.03966234e+00  1.04646781e+00  1.04674019e+00  1.05975518e+00
  1.07531445e+00  1.10170926e+00  1.12776562e+00  1.16227001e+00
  1.16406831e+00  1.25773488e+00  1.28543808e+00  1.32337625e+00
  1.36384458e+00  1.39599588e+00  1.39871267e+00  1.40288788e+00
  1.42288129e+00  1.44802325e+00  1.65889168e+00  1.74024471e+00
  1.79108024e+00  1.84697089e+00  1.85835537e+00  1.86010975e+00
  1.86038264e+00  1.91781733e+00  1.97942216e+00  2.04152968e+00
  2.05524888e+00  2.08104233e+00  2.08708807e+00  2.11283735e+00
  2.17345236e+00  2.23858154e+00  2.25650454e+00  2.28616585e+00
  2.35814925e+00  2.36303000e+00  2.50121045e+00  2.50987509e+00
  2.60179189e+00  2.61539953e+00  2.66360849e+00  2.66926703e+00
  2.71983762e+00  2.79543270e+00  2.96624143e+00  3.34767431e+00]
nelec by numeric integration = 68.00005930375397
    CPU time for vxc      5.93 sec, wall time      0.21 sec
E1 = -1776.5922550063713  Ecoul = 718.9586823940203  Exc = -70.48043337501493
cycle= 14 E= -748.089592920333  delta_E= -2.03e-10  |g|= 7.49e-06  |ddm|= 2.87e-05
    CPU time for cycle= 14      6.46 sec, wall time      0.23 sec
  HOMO = -0.155878894653008  LUMO = -0.121742377827803
  mo_energy =
[-1.01342182e+02 -1.44766055e+01 -1.03004206e+01 -1.02991763e+01
 -1.02719869e+01 -1.02640304e+01 -1.02636668e+01 -1.02258896e+01
 -9.27105020e+00 -7.02932054e+00 -7.02765393e+00 -7.02726972e+00
 -1.05278874e+00 -8.93306484e-01 -8.50445231e-01 -7.60072036e-01
 -7.15006970e-01 -6.94187571e-01 -6.16755470e-01 -5.96395308e-01
 -5.66980496e-01 -5.44656626e-01 -5.14171056e-01 -5.07888917e-01
 -5.07191553e-01 -4.42680551e-01 -4.37231074e-01 -4.21456387e-01
 -4.17551020e-01 -3.49642427e-01 -3.44242159e-01 -1.58290405e-01
 -1.55991507e-01 -1.55878895e-01 -1.21742378e-01 -7.65466167e-02
  2.96687307e-02  6.36806663e-02  7.67590208e-02  8.83209836e-02
  1.04733079e-01  1.27619856e-01  1.31500834e-01  1.44113039e-01
  1.62876517e-01  1.76053835e-01  2.12851446e-01  2.34791973e-01
  2.55342004e-01  2.73376332e-01  3.70949673e-01  3.97955679e-01
  4.34270413e-01  4.54154146e-01  4.66265428e-01  4.90956355e-01
  4.93291625e-01  5.17725696e-01  5.19170191e-01  5.38779063e-01
  5.43402995e-01  5.51969266e-01  5.62658153e-01  5.68078819e-01
  5.91308219e-01  5.96425333e-01  5.99992356e-01  6.63092155e-01
  6.71062763e-01  7.21675268e-01  7.55312479e-01  7.69925513e-01
  7.70449567e-01  7.87089811e-01  7.93676284e-01  7.96962509e-01
  8.46830099e-01  8.57509573e-01  8.75742557e-01  9.01940584e-01
  9.25382579e-01  9.59763525e-01  9.87610708e-01  1.02756730e+00
  1.03966434e+00  1.04646288e+00  1.04673532e+00  1.05975063e+00
  1.07531142e+00  1.10171102e+00  1.12776538e+00  1.16227201e+00
  1.16407114e+00  1.25773356e+00  1.28544023e+00  1.32337820e+00
  1.36384718e+00  1.39599794e+00  1.39871574e+00  1.40289117e+00
  1.42288414e+00  1.44802520e+00  1.65889418e+00  1.74024757e+00
  1.79108275e+00  1.84697278e+00  1.85835795e+00  1.86011154e+00
  1.86038481e+00  1.91781941e+00  1.97942515e+00  2.04153241e+00
  2.05525129e+00  2.08104510e+00  2.08709078e+00  2.11284010e+00
  2.17345518e+00  2.23858410e+00  2.25650733e+00  2.28616708e+00
  2.35815122e+00  2.36303179e+00  2.50121318e+00  2.50987802e+00
  2.60179468e+00  2.61540236e+00  2.66361128e+00  2.66926992e+00
  2.71984038e+00  2.79543477e+00  2.96624406e+00  3.34767712e+00]
nelec by numeric integration = 68.00005930386402
    CPU time for vxc      5.92 sec, wall time      0.21 sec
E1 = -1776.5922309716964  Ecoul = 718.9586618738424  Exc = -70.48043688901116
Extra cycle  E= -748.089592919832  delta_E= 5.01e-10  |g|= 3.15e-05  |ddm|= 0.000107
    CPU time for scf_cycle    118.31 sec, wall time      4.32 sec
    CPU time for SCF    118.32 sec, wall time      4.32 sec
converged SCF energy = -748.089592919832
Converting <class 'pyscf.dft.rks.RKS'> to RHF


******** <class 'pyscf.tdscf.rks.TDA'> for <class 'pyscf.dft.rks.RKS'> ********
nstates = 10 singlet
wfnsym = None
conv_tol = 1e-09
eigh lindep = 1e-12
eigh level_shift = 0
eigh max_space = 50
eigh max_cycle = 100
chkfile = /scratch/global/yangjunjie/tmp_6h76t26
max_memory 127949 MB (current use 599 MB)


davidson 0 10  |r|= 0.128  e= [0.01217464 0.01371672 0.06113215 0.06161149 0.06260267 0.08196244
 0.16611637 0.16749826 0.17474603 0.20146973]  max|de|= 0.201  lindep=    1
Old state -> New state
    3     ->     2 
    2     ->     3 
davidson 1 20  |r|= 0.0216  e= [0.01207751 0.01345396 0.06027976 0.06112062 0.06256124 0.06370622
 0.16562604 0.16694278 0.17230442 0.20138186]  max|de|= -0.0183  lindep= 0.826
davidson 2 30  |r|= 0.0106  e= [0.01207728 0.01344823 0.06024907 0.06112028 0.06256061 0.06316304
 0.16546523 0.16680581 0.17191315 0.20136948]  max|de|= -0.000543  lindep= 0.864
davidson 3 40  |r|= 0.00371  e= [0.01207728 0.01344819 0.06024585 0.06112027 0.06256059 0.06311578
 0.16544438 0.16678964 0.17174738 0.20136864]  max|de|= -0.000166  lindep= 0.837
root 0 converged  |r|= 3.78e-07  e= 0.012077281668460574  max|de|= -1.03e-11
root 1 converged  |r|= 1.25e-06  e= 0.0134481926019139  max|de|= -1.33e-10
root 3 converged  |r|= 1.17e-06  e= 0.06112026904404372  max|de|= -4.39e-11
root 4 converged  |r|= 1.06e-06  e= 0.06256059401668397  max|de|= -2.22e-10
davidson 4 50  |r|= 0.00192  e= [0.01207728 0.01344819 0.06024554 0.06112027 0.06256059 0.06311413
 0.16544245 0.16678616 0.17172238 0.20136843]  max|de|= -2.5e-05  lindep= 0.825
davidson 5 56  |r|= 0.00104  e= [0.01207728 0.01344819 0.06024553 0.06112027 0.06256059 0.06311408
 0.16544218 0.16678552 0.17171701 0.20136825]  max|de|= -5.37e-06  lindep= 0.83
root 2 converged  |r|= 1.83e-06  e= 0.06024552860573883  max|de|= -1.68e-10
davidson 6 62  |r|= 0.00052  e= [0.01207728 0.01344819 0.06024553 0.06112027 0.06256059 0.06311408
 0.16544216 0.16678542 0.17171543 0.20136789]  max|de|= -1.58e-06  lindep= 0.735
root 5 converged  |r|= 1.15e-06  e= 0.06311407511178091  max|de|= -4.23e-11
davidson 7 67  |r|= 0.000412  e= [0.01207728 0.01344819 0.06024553 0.06112027 0.06256059 0.06311408
 0.16544215 0.16678542 0.17171491 0.2013674 ]  max|de|= -5.2e-07  lindep= 0.769
root 6 converged  |r|= 1.02e-05  e= 0.16544215008768598  max|de|= -8.73e-10
davidson 8 71  |r|= 0.00016  e= [0.01207728 0.01344819 0.06024553 0.06112027 0.06256059 0.06311408
 0.16544215 0.16678541 0.1717147  0.20136725]  max|de|= -2.05e-07  lindep= 0.857
root 7 converged  |r|= 2.13e-05  e= 0.166785412076872  max|de|= 2.78e-17
davidson 9 10  |r|= 0.00016  e= [0.01207728 0.01344819 0.06024553 0.06112027 0.06256059 0.06311408
 0.16544215 0.16678541 0.1717147  0.20136725]  max|de|= -3.89e-16  lindep=    1
davidson 10 12  |r|= 0.000101  e= [0.01207728 0.01344819 0.06024553 0.06112027 0.06256059 0.06311408
 0.16544215 0.16678541 0.17171467 0.20136723]  max|de|= -2.75e-08  lindep= 0.747
davidson 11 14  |r|= 4.02e-05  e= [0.01207728 0.01344819 0.06024553 0.06112027 0.06256059 0.06311408
 0.16544215 0.16678541 0.17171467 0.20136722]  max|de|= -7.65e-09  lindep= 0.818
davidson 12 16  |r|= 2.57e-05  e= [0.01207728 0.01344819 0.06024553 0.06112027 0.06256059 0.06311408
 0.16544215 0.16678541 0.17171466 0.20136722]  max|de|= -2.54e-09  lindep= 0.831
root 8 converged  |r|= 1.27e-05  e= 0.1717146631756014  max|de|= -9.23e-10
root 9 converged  |r|= 9.44e-06  e= 0.20136722182100555  max|de|= -3.59e-10
converged 13 18  |r|= 2.06e-05  e= [0.01207728 0.01344819 0.06024553 0.06112027 0.06256059 0.06311408
 0.16544215 0.16678541 0.17171466 0.20136722]  max|de|= -9.23e-10
    CPU time for TDA    249.65 sec, wall time      9.08 sec
Excited State energies (eV)
[0.32863957 0.36594396 1.63936433 1.66316723 1.70236047 1.71742146
 4.50191021 4.53846223 4.67259398 5.4794812 ]
Converting <class 'pyscf.dft.rks.RKS'> to RHF


******** <class 'pyscf.tdscf.rks.TDDFT'> for <class 'pyscf.dft.rks.RKS'> ********
nstates = 10 singlet
wfnsym = None
conv_tol = 1e-09
eigh lindep = 1e-12
eigh level_shift = 0
eigh max_space = 50
eigh max_cycle = 100
chkfile = /scratch/global/yangjunjie/tmp_6h76t26
max_memory 127949 MB (current use 630 MB)


davidson 0 10  |r|= 0.193  e= [0.01217464 0.01371672 0.06113215 0.06161149 0.06260267 0.08196244
 0.16611637 0.16749826 0.17474603 0.20146973]  max|de|= 0.201  lindep=    1
Old state -> New state
    5     ->     1 
    3     ->     2 
    2     ->     3 
    6     ->     9 
davidson 1 20  |r|= 0.958  e= [0.01167017 0.03764429 0.06093682 0.06111485 0.06254892 0.10516489
 0.1637192  0.16636706 0.17246687 0.18966119]  max|de|= -0.0443  lindep= 0.0855
Old state -> New state
    0     ->     1 
    0     ->     2 
    1     ->     3 
    0     ->     4 
    2     ->     5 
    3     ->     6 
    4     ->     7 
    1     ->     8 
    6     ->     9 
davidson 2 30  |r|= 1.32  e= [0.00722409 0.01177368 0.01239151 0.03707704 0.03788812 0.05970672
 0.0611185  0.0625546  0.11153832 0.16539835]  max|de|= 0.0739  lindep= 0.131
Old state -> New state
    1     ->     0 
    2     ->     1 
    3     ->     2 
    9     ->     8 
davidson 3 40  |r|= 0.968  e= [0.01180882 0.01313376 0.03831824 0.0465704  0.04928651 0.05985838
 0.06111878 0.06255575 0.16534218 0.16639197]  max|de|= 0.0114  lindep= 0.149
Old state -> New state
    5     ->     0 
    0     ->     1 
    1     ->     2 
    2     ->     3 
    1     ->     4 
    7     ->     8 
    8     ->     9 
davidson 4 50  |r|= 1.48  e= [0.0057416  0.01180862 0.01311021 0.03773865 0.03913623 0.0598626
 0.06111872 0.06255544 0.06837767 0.1653952 ]  max|de|= -0.0541  lindep= 0.079
Old state -> New state
    2     ->     3 
    2     ->     4 
    3     ->     5 
    2     ->     6 
    5     ->     7 
    6     ->     8 
    7     ->     9 
davidson 5 60  |r|= 1.06  e= [0.003482   0.01180864 0.01310688 0.01774481 0.01788785 0.03778416
 0.03902298 0.05986832 0.06111873 0.06255548]  max|de|= 0.0259  lindep= 0.035
Old state -> New state
    4     ->     0 
    2     ->     3 
    0     ->     4 
    7     ->     6 
    8     ->     7 
    9     ->     8 
    4     ->     9 
davidson 6 70  |r|= 1.34  e= [0.00869689 0.01180861 0.01310782 0.0150352  0.03416845 0.03782423
 0.0598752  0.06111873 0.06255547 0.09946804]  max|de|= 0.0816  lindep= 0.0638
Old state -> New state
    5     ->     4 
    3     ->     9 
root 1 converged  |r|= 3.06e-06  e= 0.01180861371163915  max|de|= 8.59e-10
root 7 converged  |r|= 9.49e-07  e= 0.06111873423583409  max|de|= -1.87e-11
davidson 7 80  |r|= 1.23  e= [0.00666067 0.01180861 0.01310797 0.01589839 0.03788521 0.05210245
 0.05984341 0.06111873 0.06255548 0.08626131]  max|de|= 0.0712  lindep= 0.00751
root 8 converged  |r|= 6.28e-06  e= 0.06255547579255266  max|de|= 9.71e-17
davidson 8 10  |r|= 1.23  e= [0.00666067 0.01180861 0.01310797 0.01589839 0.03788521 0.05210245
 0.05984341 0.06111873 0.06255548 0.08626131]  max|de|= 3.33e-16  lindep= 0.219
Old state -> New state
    4     ->     5 
    4     ->     6 
    6     ->     7 
    7     ->     8 
    8     ->     9 
davidson 9 17  |r|= 0.627  e= [0.00679951 0.01180861 0.01310783 0.01405081 0.01973175 0.03782295
 0.05559552 0.05988163 0.06111873 0.06255548]  max|de|= -0.0182  lindep= 0.0705
Old state -> New state
    5     ->     4 
    7     ->     5 
    8     ->     6 
    9     ->     7 
    6     ->     8 
    0     ->     9 
davidson 10 24  |r|= 1.24  e= [0.00973493 0.01180861 0.01310805 0.0182931  0.03785233 0.05988205
 0.06111873 0.06255548 0.10082369 0.15185077]  max|de|= 0.145  lindep= 0.0878
Old state -> New state
    3     ->     0 
    4     ->     3 
    4     ->     8 
    8     ->     9 
davidson 11 31  |r|= 1.33  e= [0.01093739 0.01180861 0.01310812 0.03071687 0.03784852 0.05988282
 0.06111873 0.06255547 0.11048994 0.13684181]  max|de|= 0.0726  lindep= 0.0867
Old state -> New state
    1     ->     0 
    2     ->     1 
    3     ->     2 
    4     ->     3 
    5     ->     4 
    6     ->     5 
    7     ->     6 
    5     ->     7 
    4     ->     8 
    0     ->     9 
root 0 converged  |r|= 4.41e-07  e= 0.011808614384089764  max|de|= -3.22e-10
davidson 12 39  |r|= 1.27  e= [0.01180861 0.01310804 0.02600034 0.03783981 0.05989036 0.06111873
 0.06255549 0.06336226 0.1585249  0.19952953]  max|de|= 0.189  lindep= 0.13
Old state -> New state
    3     ->     2 
    2     ->     8 
    2     ->     9 
davidson 13 47  |r|= 1.09  e= [0.01180861 0.01310806 0.03785256 0.0457156  0.05988355 0.06111873
 0.06255548 0.0835331  0.12050137 0.1545971 ]  max|de|= 0.129  lindep= 0.145
Old state -> New state
    2     ->     3 
    3     ->     7 
    9     ->     8 
    8     ->     9 
root 1 converged  |r|= 2.66e-07  e= 0.013108055793132596  max|de|= 5.51e-10
root 5 converged  |r|= 1.17e-06  e= 0.061118734194553874  max|de|= -5.82e-10
root 6 converged  |r|= 6.87e-07  e= 0.06255547508304989  max|de|= -9.41e-10
davidson 14 56  |r|= 1.28  e= [0.01180861 0.01310806 0.03784847 0.05537108 0.05988292 0.06111873
 0.06255548 0.10340406 0.1886468  0.22930396]  max|de|= 0.109  lindep= 0.145
Old state -> New state
    0     ->     2 
    2     ->     3 
    2     ->     7 
davidson 15 62  |r|= 1.13  e= [0.01180861 0.01310806 0.01573353 0.0378488  0.05988294 0.06111873
 0.06255548 0.11710505 0.2076883  0.24362638]  max|de|= 0.0793  lindep=  0.1
Old state -> New state
    0     ->     1 
    1     ->     2 
    3     ->     4 
    4     ->     5 
    5     ->     6 
    6     ->     7 
    3     ->     8 
davidson 16 68  |r|= 1.03  e= [0.00825986 0.01180861 0.01310806 0.0378488  0.04324319 0.05988298
 0.06111873 0.06255548 0.12261365 0.16810755]  max|de|= 0.0848  lindep= 0.0981
Old state -> New state
    1     ->     0 
    2     ->     1 
    3     ->     2 
    5     ->     3 
    6     ->     4 
    7     ->     5 
    8     ->     6 
    8     ->     7 
    9     ->     8 
    0     ->     9 
davidson 17 74  |r|= 1.06  e= [0.01180861 0.01310806 0.03784878 0.05988293 0.06111873 0.06255548
 0.16133678 0.20027138 0.20426575 0.22518308]  max|de|= 0.217  lindep= 0.257
Old state -> New state
    2     ->     0 
    0     ->     1 
    1     ->     2 
    2     ->     3 
    3     ->     4 
    4     ->     5 
    5     ->     6 
    8     ->     7 
    7     ->     8 
    8     ->     9 
davidson 18 79  |r|= 0.846  e= [0.00880795 0.01180861 0.01310806 0.03784878 0.05988292 0.06111873
 0.06255548 0.13830451 0.19948834 0.20585172]  max|de|= -0.066  lindep= 0.099
root 3 converged  |r|= 2.12e-07  e= 0.0378487847933738  max|de|= -7.63e-17
root 4 converged  |r|= 3.82e-07  e= 0.05988292438127402  max|de|= -2.22e-16
davidson 19 10  |r|= 0.846  e= [0.00880795 0.01180861 0.01310806 0.03784878 0.05988292 0.06111873
 0.06255548 0.13830451 0.19948834 0.20585172]  max|de|= 2.69e-15  lindep= 0.316
Old state -> New state
    3     ->     7 
    7     ->     8 
    8     ->     9 
davidson 20 14  |r|= 0.907  e= [0.00986261 0.01180861 0.01310806 0.03784879 0.05988292 0.06111873
 0.06255548 0.13550205 0.19092981 0.20135491]  max|de|= 0.0977  lindep= 0.0467
Old state -> New state
    1     ->     0 
    2     ->     1 
    3     ->     2 
    3     ->     7 
davidson 21 18  |r|= 0.711  e= [0.01180861 0.01310806 0.03625432 0.03784882 0.05988292 0.06111873
 0.06255548 0.11881528 0.19212154 0.20142607]  max|de|= 0.081  lindep= 0.287
Old state -> New state
    3     ->     2 
    3     ->     7 
    8     ->     9 
davidson 22 23  |r|= 0.802  e= [0.01180861 0.01310806 0.01747459 0.03784877 0.05988292 0.06111873
 0.06255548 0.07542536 0.15208565 0.19009944]  max|de|= -0.04  lindep= 0.275
Old state -> New state
    4     ->     7 
davidson 23 27  |r|= 0.605  e= [0.01180861 0.01310806 0.01804989 0.03784878 0.05988294 0.06111873
 0.06255548 0.06358302 0.17655676 0.20066776]  max|de|= 0.0245  lindep= 0.0404
Old state -> New state
    3     ->     0 
    0     ->     1 
    1     ->     2 
    2     ->     3 
    3     ->     4 
    3     ->     5 
    4     ->     6 
    5     ->     7 
    6     ->     8 
    7     ->     9 
davidson 24 32  |r|= 0.96  e= [0.00125639 0.01180861 0.01310806 0.01771469 0.03784878 0.05581403
 0.05988293 0.06111873 0.06255548 0.15564717]  max|de|= 0.0921  lindep= 0.0537
Old state -> New state
    4     ->     3 
    6     ->     4 
    7     ->     5 
    8     ->     6 
    6     ->     7 
    9     ->     8 
    5     ->     9 
davidson 25 37  |r|= 0.891  e= [0.004808   0.01180861 0.01310806 0.03784878 0.05988293 0.06111873
 0.06255548 0.07344787 0.17046577 0.18255505]  max|de|= 0.127  lindep= 0.211
Old state -> New state
    4     ->     5 
    5     ->     6 
    6     ->     7 
    7     ->     9 
davidson 26 41  |r|= 1.18  e= [0.0073918  0.01180861 0.01310806 0.03784878 0.04650783 0.05988292
 0.06111873 0.06255548 0.17238564 0.2535651 ]  max|de|= 0.18  lindep= 0.0777
Old state -> New state
    1     ->     0 
    2     ->     1 
    3     ->     2 
    5     ->     3 
    6     ->     4 
    7     ->     5 
    3     ->     6 
    8     ->     7 
root 2 converged  |r|= 5.82e-08  e= 0.0378487808504942  max|de|= 9.79e-10
root 3 converged  |r|= 6.71e-08  e= 0.059882924111348865  max|de|= 3.23e-10
davidson 27 45  |r|= 1.11  e= [0.01180861 0.01310806 0.03784878 0.05988292 0.06111873 0.06255548
 0.07733868 0.16654577 0.19359875 0.20172137]  max|de|= -0.0518  lindep= 0.171
Old state -> New state
    3     ->     6 
    9     ->     8 
davidson 28 49  |r|= 0.832  e= [0.01180861 0.01310806 0.03784878 0.05988292 0.06111873 0.06255548
 0.07908232 0.16938241 0.1843395  0.19968093]  max|de|= 0.0192  lindep= 0.229
Old state -> New state
    2     ->     6 
davidson 29 53  |r|= 0.93  e= [0.01180861 0.01310806 0.03784878 0.05988292 0.06111873 0.06255548
 0.06338672 0.16947779 0.18682446 0.19927169]  max|de|= 0.0255  lindep= 0.225
Old state -> New state
    8     ->     6 
    8     ->     7 
davidson 30 57  |r|= 0.51  e= [0.01180861 0.01310806 0.03784878 0.05988292 0.06111873 0.06255548
 0.16368724 0.17005535 0.17373163 0.19889498]  max|de|= -0.0231  lindep= 0.447
Old state -> New state
    8     ->     9 
davidson 31 61  |r|= 0.253  e= [0.01180861 0.01310806 0.03784878 0.05988292 0.06111873 0.06255548
 0.16704831 0.16988358 0.17333197 0.19851446]  max|de|= 0.0248  lindep= 0.423
Old state -> New state
    8     ->     6 
    6     ->     7 
    7     ->     8 
    8     ->     9 
davidson 32 65  |r|= 0.675  e= [0.01180861 0.01310806 0.03784878 0.05988292 0.06111873 0.06255548
 0.15750586 0.16546766 0.17031657 0.18540783]  max|de|= -0.0158  lindep= 0.316
davidson 33 69  |r|= 0.579  e= [0.01180861 0.01310806 0.03784878 0.05988292 0.06111873 0.06255548
 0.16440678 0.16563848 0.17057974 0.18343306]  max|de|= 0.0069  lindep= 0.389
Old state -> New state
    1     ->     0 
    0     ->     1 
    1     ->     2 
    2     ->     3 
    3     ->     4 
    4     ->     5 
    5     ->     6 
    6     ->     8 
    8     ->     9 
davidson 34 73  |r|= 1.03  e= [0.00446086 0.01180861 0.01310806 0.03784878 0.05988292 0.06111873
 0.06255548 0.16542404 0.16720487 0.17059184]  max|de|= -0.00865  lindep= 0.172
davidson 35 77  |r|= 1.04  e= [0.00281429 0.01180861 0.01310806 0.03784878 0.05988292 0.06111873
 0.06255548 0.1653349  0.16656773 0.17030229]  max|de|= -0.00165  lindep= 0.0549
davidson 36 10  |r|= 1.04  e= [0.00281429 0.01180861 0.01310806 0.03784878 0.05988292 0.06111873
 0.06255548 0.1653349  0.16656773 0.17030229]  max|de|= 1.03e-15  lindep= 0.346
Old state -> New state
    1     ->     0 
    2     ->     1 
    0     ->     2 
    4     ->     7 
    7     ->     8 
    8     ->     9 
davidson 37 14  |r|= 1.19  e= [0.01180861 0.01310806 0.01568861 0.03784878 0.05988292 0.06111873
 0.06255548 0.11693755 0.16548127 0.1673731 ]  max|de|= 0.0571  lindep= 0.179
Old state -> New state
    2     ->     0 
    0     ->     1 
    1     ->     2 
    3     ->     4 
    3     ->     5 
    4     ->     6 
    5     ->     7 
    6     ->     8 
davidson 38 18  |r|= 1.07  e= [0.00288794 0.01180861 0.01310806 0.02525943 0.03432368 0.03784878
 0.05988292 0.06111873 0.06255548 0.16443391]  max|de|= -0.0128  lindep= 0.204
Old state -> New state
    1     ->     0 
    2     ->     1 
    5     ->     2 
    5     ->     3 
    6     ->     4 
    7     ->     5 
    8     ->     6 
    4     ->     7 
    9     ->     8 
davidson 39 22  |r|= 0.695  e= [0.01180861 0.01310806 0.01679    0.03784878 0.05988292 0.06111873
 0.06255548 0.12373709 0.16542509 0.16687214]  max|de|= 0.0894  lindep= 0.151
Old state -> New state
    3     ->     6 
    6     ->     7 
    7     ->     8 
    8     ->     9 
davidson 40 26  |r|= 1.31  e= [0.01180861 0.01310806 0.01836754 0.03784878 0.05988292 0.06111873
 0.06190589 0.06255548 0.10846537 0.16542611]  max|de|= 0.0241  lindep= 0.0361
Old state -> New state
    3     ->     2 
    4     ->     3 
    5     ->     4 
    7     ->     5 
    8     ->     7 
    9     ->     8 
davidson 41 30  |r|= 1.01  e= [0.01180861 0.01310806 0.03784878 0.05988292 0.06111873 0.06255548
 0.13991953 0.15856477 0.16549642 0.16699896]  max|de|= 0.078  lindep= 0.34
Old state -> New state
    7     ->     6 
    8     ->     7 
    9     ->     8 
    6     ->     9 
root 2 converged  |r|= 3.77e-08  e= 0.03784878310290498  max|de|= -7.12e-11
davidson 42 34  |r|= 1.09  e= [0.01180861 0.01310806 0.03784878 0.05988292 0.06111873 0.06255548
 0.08093348 0.16540824 0.16675915 0.17062979]  max|de|= -0.0776  lindep= 0.142
Old state -> New state
    3     ->     4 
    4     ->     5 
    5     ->     6 
davidson 43 38  |r|= 0.401  e= [0.01180861 0.01310806 0.03784878 0.05428817 0.05988292 0.06111873
 0.06255548 0.16539779 0.16676979 0.1702862 ]  max|de|= -0.00559  lindep= 0.278
Old state -> New state
    4     ->     3 
    5     ->     4 
    6     ->     5 
    2     ->     6 
davidson 44 42  |r|= 0.922  e= [0.01180861 0.01310806 0.03784878 0.05988292 0.06111873 0.06255548
 0.14020425 0.16540249 0.1667766  0.17055576]  max|de|= 0.102  lindep= 0.101
Old state -> New state
    7     ->     6 
    8     ->     7 
    9     ->     8 
    6     ->     9 
davidson 45 46  |r|= 0.158  e= [0.01180861 0.01310806 0.03784878 0.05988292 0.06111873 0.06255548
 0.16539967 0.16677087 0.17054792 0.21584192]  max|de|= 0.0756  lindep= 0.0746
Old state -> New state
    2     ->     6 
    6     ->     7 
    7     ->     8 
    8     ->     9 
davidson 46 50  |r|= 0.922  e= [0.01180861 0.01310806 0.03784878 0.05988292 0.06111873 0.06255548
 0.07278264 0.16539994 0.16676922 0.17054479]  max|de|= 0.0349  lindep= 0.0261
Old state -> New state
    2     ->     3 
    2     ->     4 
    3     ->     5 
    4     ->     6 
    5     ->     7 
    7     ->     8 
    8     ->     9 
root 4 converged  |r|= 3.76e-08  e= 0.037848781524219145  max|de|= -9.17e-10
davidson 47 54  |r|= 0.498  e= [0.01180861 0.01310806 0.02015405 0.0324073  0.03784878 0.05988292
 0.06111873 0.06255548 0.16540048 0.16676883]  max|de|= -0.0177  lindep= 0.0183
Old state -> New state
    2     ->     0 
    0     ->     1 
    1     ->     2 
    2     ->     3 
    2     ->     8 
    8     ->     9 
davidson 48 58  |r|= 0.973  e= [0.00773526 0.01180861 0.01310806 0.01733693 0.03784878 0.05988292
 0.06111873 0.06255548 0.14357017 0.16540006]  max|de|= 0.123  lindep= 0.0127
Old state -> New state
    1     ->     0 
    2     ->     1 
    4     ->     2 
    5     ->     3 
    6     ->     4 
    7     ->     5 
    9     ->     6 
    8     ->     7 
    4     ->     9 
davidson 49 62  |r|= 0.729  e= [0.01180861 0.01310806 0.03784878 0.05988292 0.06111873 0.06255548
 0.16541332 0.16678434 0.17073924 0.17424511]  max|de|= 0.136  lindep= 0.284
davidson 50 66  |r|=  0.2  e= [0.01180861 0.01310806 0.03784878 0.05988292 0.06111873 0.06255548
 0.16539928 0.16676548 0.17054538 0.20046726]  max|de|= 0.0262  lindep= 0.183
Old state -> New state
    2     ->     6 
    6     ->     7 
    7     ->     8 
    8     ->     9 
davidson 51 70  |r|= 1.04  e= [0.01180861 0.01310806 0.03784878 0.05988292 0.06111873 0.06255548
 0.0797518  0.1653986  0.16676492 0.17054633]  max|de|= 0.0419  lindep= 0.161
Old state -> New state
    2     ->     3 
    3     ->     4 
    4     ->     5 
    5     ->     6 
davidson 52 74  |r|= 0.51  e= [0.01180861 0.01310806 0.03784878 0.04763811 0.05988292 0.06111873
 0.06255548 0.16539948 0.16676462 0.17054087]  max|de|= 0.00979  lindep= 0.115
Old state -> New state
    4     ->     3 
    5     ->     4 
    6     ->     5 
    7     ->     6 
    8     ->     7 
    9     ->     8 
    3     ->     9 
davidson 53 78  |r|= 0.223  e= [0.01180861 0.01310806 0.03784878 0.05988292 0.06111873 0.06255548
 0.16539904 0.16676491 0.17054189 0.20755929]  max|de|= 0.16  lindep= 0.403
root 2 converged  |r|= 1.56e-08  e= 0.037848781808563985  max|de|= -8.33e-17
davidson 54 10  |r|= 0.223  e= [0.01180861 0.01310806 0.03784878 0.05988292 0.06111873 0.06255548
 0.16539904 0.16676491 0.17054189 0.20755929]  max|de|= 1.14e-15  lindep= 0.976
Old state -> New state
    2     ->     3 
    3     ->     4 
    4     ->     5 
    5     ->     6 
    2     ->     7 
    6     ->     8 
    7     ->     9 
davidson 55 14  |r|= 1.09  e= [0.01180861 0.01310806 0.03784878 0.05388215 0.05988292 0.06111873
 0.06255548 0.10994943 0.16540009 0.16676286]  max|de|= 0.0721  lindep= 0.344
Old state -> New state
    4     ->     3 
    5     ->     4 
    6     ->     5 
    3     ->     6 
    8     ->     7 
    9     ->     8 
    7     ->     9 
davidson 56 18  |r|= 0.626  e= [0.01180861 0.01310806 0.03784878 0.05988292 0.06111873 0.06255548
 0.07857625 0.165399   0.16676504 0.17053908]  max|de|= 0.0606  lindep= 0.37
Old state -> New state
    3     ->     6 
davidson 57 22  |r|= 0.611  e= [0.01180861 0.01310806 0.03784878 0.05988292 0.06111873 0.06255548
 0.07254131 0.1653991  0.16676526 0.17053641]  max|de|= 0.0127  lindep= 0.24
davidson 58 26  |r|= 0.658  e= [0.01180861 0.01310806 0.03784878 0.05988292 0.06111873 0.06255548
 0.11745851 0.16539895 0.16676545 0.17053932]  max|de|= 0.0449  lindep= 0.359
Old state -> New state
    7     ->     6 
    8     ->     7 
    9     ->     8 
davidson 59 30  |r|= 0.146  e= [0.01180861 0.01310806 0.03784878 0.05988292 0.06111873 0.06255548
 0.16539825 0.16676774 0.17067398 0.17080795]  max|de|= 0.000269  lindep= 0.366
Old state -> New state
    2     ->     3 
    3     ->     4 
    4     ->     5 
    5     ->     6 
    8     ->     7 
    6     ->     8 
    7     ->     9 
davidson 60 34  |r|= 0.778  e= [0.01180861 0.01310806 0.0225505  0.03784878 0.05988292 0.06111873
 0.06255548 0.14861052 0.16539886 0.16676483]  max|de|= -0.0221  lindep= 0.188
Old state -> New state
    3     ->     2 
    4     ->     3 
    5     ->     4 
    6     ->     5 
    2     ->     6 
    8     ->     7 
    9     ->     8 
    7     ->     9 
davidson 61 38  |r|= 0.834  e= [0.01180861 0.01310806 0.03784878 0.05988292 0.06111873 0.06255548
 0.14741745 0.16539901 0.16676498 0.17053568]  max|de|= 0.125  lindep= 0.316
Old state -> New state
    2     ->     3 
    3     ->     4 
    4     ->     5 
    5     ->     6 
davidson 62 42  |r|= 0.0912  e= [0.01180861 0.01310806 0.02988782 0.03784878 0.05988292 0.06111873
 0.06255548 0.16539894 0.16676503 0.17053976]  max|de|= -0.00796  lindep= 0.109
Old state -> New state
    3     ->     2 
    4     ->     3 
root 8 converged  |r|= 8.68e-06  e= 0.16676503139032267  max|de|= -8.12e-10
davidson 63 46  |r|= 0.506  e= [0.01180861 0.01310806 0.03784878 0.05477672 0.05988292 0.06111873
 0.06255548 0.16539895 0.16676503 0.17053882]  max|de|= -0.00511  lindep= 0.154
Old state -> New state
    4     ->     3 
    5     ->     4 
    6     ->     5 
    7     ->     6 
    8     ->     7 
    9     ->     8 
    3     ->     9 
root 2 converged  |r|= 1.62e-08  e= 0.0378487820795241  max|de|= -1.17e-10
davidson 64 49  |r|= 0.779  e= [0.01180861 0.01310806 0.03784878 0.05988292 0.06111873 0.06255548
 0.16539894 0.16676504 0.17053869 0.19206144]  max|de|= 0.137  lindep= 0.423
davidson 65 53  |r|= 0.0504  e= [0.01180861 0.01310806 0.03784878 0.05988292 0.06111873 0.06255548
 0.16539895 0.16676503 0.17053872 0.20118874]  max|de|= 0.00913  lindep= 0.274
Old state -> New state
    8     ->     9 
davidson 66 57  |r|= 0.653  e= [0.01180861 0.01310806 0.03784878 0.05988292 0.06111873 0.06255548
 0.16539896 0.16676512 0.16808626 0.17053832]  max|de|= -0.00245  lindep= 0.277
Old state -> New state
    9     ->     8 
    8     ->     9 
davidson 67 61  |r|= 0.0363  e= [0.01180861 0.01310806 0.03784878 0.05988292 0.06111873 0.06255548
 0.16539895 0.16676503 0.17053875 0.20045623]  max|de|= 0.0324  lindep= 0.529
Old state -> New state
    9     ->     6 
    6     ->     7 
    7     ->     8 
    8     ->     9 
davidson 68 63  |r|= 0.733  e= [0.01180861 0.01310806 0.03784878 0.05988292 0.06111873 0.06255548
 0.15998587 0.16539895 0.16676503 0.17053876]  max|de|= -0.0405  lindep= 0.321
Old state -> New state
    7     ->     6 
    8     ->     7 
    9     ->     8 
    2     ->     9 
davidson 69 67  |r|= 0.508  e= [0.01180861 0.01310806 0.03784878 0.05988292 0.06111873 0.06255548
 0.16539895 0.16676503 0.17053875 0.19532834]  max|de|= 0.157  lindep= 0.497
Old state -> New state
    7     ->     8 
    8     ->     9 
root 6 converged  |r|= 1.51e-06  e= 0.16539895078953037  max|de|= 9.44e-11
davidson 70 70  |r|= 0.613  e= [0.01180861 0.01310806 0.03784878 0.05988292 0.06111873 0.06255548
 0.16539895 0.16676503 0.16850065 0.17053874]  max|de|= 0.00174  lindep= 0.444
Old state -> New state
    9     ->     8 
    8     ->     9 
davidson 71 73  |r|= 0.135  e= [0.01180861 0.01310806 0.03784878 0.05988292 0.06111873 0.06255548
 0.16539895 0.16676503 0.17053875 0.19989348]  max|de|= 0.0314  lindep= 0.517
root 7 converged  |r|= 9.74e-08  e= 0.16676503056523037  max|de|= 3.03e-11
root 8 converged  |r|= 1.06e-07  e= 0.17053875222145173  max|de|= -4.39e-10
davidson 72 74  |r|= 0.012  e= [0.01180861 0.01310806 0.03784878 0.05988292 0.06111873 0.06255548
 0.16539895 0.16676503 0.17053875 0.20009077]  max|de|= 0.000197  lindep= 0.457
Old state -> New state
    2     ->     6 
    6     ->     7 
    7     ->     8 
    8     ->     9 
davidson 73 75  |r|= 0.832  e= [0.01180861 0.01310806 0.03784878 0.05988292 0.06111873 0.06255548
 0.09579204 0.16539895 0.16676503 0.17053875]  max|de|= 0.0579  lindep= 0.213
Old state -> New state
    7     ->     6 
    8     ->     7 
    9     ->     8 
    6     ->     9 
davidson 74 76  |r|= 0.0299  e= [0.01180861 0.01310806 0.03784878 0.05988292 0.06111873 0.06255548
 0.16539895 0.16676503 0.17053875 0.19965084]  max|de|= 0.104  lindep= 0.831
davidson 75 77  |r|= 0.0224  e= [0.01180861 0.01310806 0.03784878 0.05988292 0.06111873 0.06255548
 0.16539895 0.16676503 0.17053875 0.19971443]  max|de|= 6.36e-05  lindep= 0.11
davidson 76 10  |r|= 0.0224  e= [0.01180861 0.01310806 0.03784878 0.05988292 0.06111873 0.06255548
 0.16539895 0.16676503 0.17053875 0.19971443]  max|de|= 4.49e-14  lindep= 0.999
Old state -> New state
    3     ->     4 
    4     ->     5 
    5     ->     6 
    6     ->     7 
    7     ->     8 
    8     ->     9 
davidson 77 11  |r|= 0.873  e= [0.01180861 0.01310806 0.03784878 0.05684663 0.05988292 0.06111873
 0.06255548 0.16539895 0.16676503 0.17053875]  max|de|= -0.00304  lindep= 0.461
Old state -> New state
    4     ->     3 
    5     ->     4 
    6     ->     5 
    3     ->     6 
davidson 78 12  |r|= 0.953  e= [0.01180861 0.01310806 0.03784878 0.05988292 0.06111873 0.06255548
 0.10280296 0.16539895 0.16676503 0.17053875]  max|de|= 0.046  lindep= 0.397
Old state -> New state
    7     ->     6 
    8     ->     7 
    9     ->     8 
    6     ->     9 
davidson 79 13  |r|= 0.0328  e= [0.01180861 0.01310806 0.03784878 0.05988292 0.06111873 0.06255548
 0.16539895 0.16676503 0.17053875 0.19990648]  max|de|= 0.0971  lindep= 0.794
davidson 80 14  |r|= 0.00844  e= [0.01180861 0.01310806 0.03784878 0.05988292 0.06111873 0.06255548
 0.16539895 0.16676503 0.17053875 0.19960317]  max|de|= -0.000303  lindep= 0.869
davidson 81 15  |r|= 0.00898  e= [0.01180861 0.01310806 0.03784878 0.05988292 0.06111873 0.06255548
 0.16539895 0.16676503 0.17053875 0.19959807]  max|de|= -5.1e-06  lindep= 0.0503
davidson 82 16  |r|= 0.638  e= [0.01180861 0.01310806 0.03784878 0.05988292 0.06111873 0.06255548
 0.16539895 0.16676503 0.17053875 0.37459825]  max|de|= 0.175  lindep= 0.655
davidson 83 17  |r|= 0.00934  e= [0.01180861 0.01310806 0.03784878 0.05988292 0.06111873 0.06255548
 0.16539895 0.16676503 0.17053875 0.19990048]  max|de|= -0.175  lindep= 0.795
davidson 84 18  |r|= 0.00792  e= [0.01180861 0.01310806 0.03784878 0.05988292 0.06111873 0.06255548
 0.16539895 0.16676503 0.17053875 0.19981908]  max|de|= -8.14e-05  lindep= 0.151
davidson 85 19  |r|= 0.032  e= [0.01180861 0.01310806 0.03784878 0.05988292 0.06111873 0.06255548
 0.16539895 0.16676503 0.17053875 0.19955564]  max|de|= -0.000263  lindep= 0.779
davidson 86 20  |r|= 0.00791  e= [0.01180861 0.01310806 0.03784878 0.05988292 0.06111873 0.06255548
 0.16539895 0.16676503 0.17053875 0.19959209]  max|de|= 3.64e-05  lindep= 0.872
Old state -> New state
    0     ->     2 
    2     ->     3 
    3     ->     4 
    4     ->     5 
    5     ->     6 
    6     ->     7 
    7     ->     8 
    8     ->     9 
davidson 87 21  |r|= 0.515  e= [0.01180861 0.01310806 0.01782371 0.03784878 0.05988292 0.06111873
 0.06255548 0.16539895 0.16676503 0.17053875]  max|de|= 0.00602  lindep= 0.232
Old state -> New state
    2     ->     7 
    7     ->     8 
    8     ->     9 
davidson 88 22  |r|= 1.16  e= [0.01180861 0.01310806 0.02592802 0.03784878 0.05988292 0.06111873
 0.06255548 0.10525823 0.16539895 0.16676503]  max|de|= 0.0874  lindep= 0.104
Old state -> New state
    3     ->     2 
    4     ->     3 
    5     ->     4 
    6     ->     5 
    2     ->     6 
    8     ->     7 
    9     ->     8 
    3     ->     9 
davidson 89 24  |r|= 1.22  e= [0.01180861 0.01310806 0.03784878 0.05988292 0.06111873 0.06255548
 0.09771101 0.16539895 0.16676503 0.17053875]  max|de|= 0.133  lindep= 0.277
Old state -> New state
    7     ->     6 
    8     ->     7 
    9     ->     8 
    6     ->     9 
root 8 converged  |r|= 9.37e-08  e= 0.1705387520444997  max|de|= -4.22e-11
davidson 90 25  |r|= 0.0126  e= [0.01180861 0.01310806 0.03784878 0.05988292 0.06111873 0.06255548
 0.16539895 0.16676503 0.17053875 0.19963838]  max|de|= 0.102  lindep= 0.47
Old state -> New state
    0     ->     1 
    1     ->     2 
    2     ->     3 
    3     ->     4 
    4     ->     5 
    5     ->     6 
    6     ->     7 
    7     ->     8 
    8     ->     9 
davidson 91 26  |r|= 0.457  e= [0.0021453  0.01180861 0.01310806 0.03784878 0.05988292 0.06111873
 0.06255548 0.16539895 0.16676503 0.17053875]  max|de|= -0.00966  lindep= 0.185
Old state -> New state
    1     ->     0 
    2     ->     1 
    3     ->     2 
    4     ->     3 
    5     ->     4 
    6     ->     5 
    0     ->     6 
davidson 92 27  |r|= 1.07  e= [0.01180861 0.01310806 0.03784878 0.05988292 0.06111873 0.06255548
 0.14066911 0.16539895 0.16676503 0.17053875]  max|de|= 0.139  lindep= 0.23
Old state -> New state
    7     ->     6 
    8     ->     7 
    9     ->     8 
    6     ->     9 
davidson 93 28  |r|= 0.0098  e= [0.01180861 0.01310806 0.03784878 0.05988292 0.06111873 0.06255548
 0.16539895 0.16676503 0.17053875 0.1994448 ]  max|de|= 0.0588  lindep= 0.549
Old state -> New state
    2     ->     3 
    3     ->     4 
    4     ->     5 
    5     ->     6 
    6     ->     7 
    7     ->     8 
    8     ->     9 
davidson 94 29  |r|= 0.258  e= [0.01180861 0.01310806 0.02079321 0.03784878 0.05988292 0.06111873
 0.06255548 0.16539895 0.16676503 0.17053875]  max|de|= -0.0171  lindep= 0.115
Old state -> New state
    2     ->     0 
    0     ->     1 
    1     ->     2 
davidson 95 30  |r|= 0.308  e= [0.00224084 0.01180861 0.01310806 0.03784878 0.05988292 0.06111873
 0.06255548 0.16539895 0.16676503 0.17053875]  max|de|= -0.0186  lindep= 0.165
Old state -> New state
    1     ->     0 
    2     ->     1 
    3     ->     2 
    4     ->     3 
    5     ->     4 
    6     ->     5 
    0     ->     6 
davidson 96 31  |r|= 0.894  e= [0.01180861 0.01310806 0.03784878 0.05988292 0.06111873 0.06255548
 0.10405616 0.16539895 0.16676503 0.17053875]  max|de|= 0.102  lindep= 0.283
Old state -> New state
    7     ->     6 
    8     ->     7 
    9     ->     8 
    2     ->     9 
root 8 converged  |r|= 1.15e-07  e= 0.17053875179534367  max|de|= -8.35e-11
davidson 97 32  |r|= 0.444  e= [0.01180861 0.01310806 0.03784878 0.05988292 0.06111873 0.06255548
 0.16539895 0.16676503 0.17053875 0.21536798]  max|de|= 0.178  lindep= 0.517
davidson 98 33  |r|= 0.0087  e= [0.01180861 0.01310806 0.03784878 0.05988292 0.06111873 0.06255548
 0.16539895 0.16676503 0.17053875 0.19943895]  max|de|= -0.0159  lindep= 0.613
Old state -> New state
    3     ->     4 
    4     ->     5 
    5     ->     6 
    6     ->     7 
    7     ->     8 
    8     ->     9 
davidson 99 34  |r|= 0.468  e= [0.01180861 0.01310806 0.03784878 0.05775297 0.05988292 0.06111873
 0.06255548 0.16539895 0.16676503 0.17053875]  max|de|= -0.00213  lindep= 0.202
    CPU time for TDDFT   1215.33 sec, wall time     43.64 sec
TD-SCF states [3] not converged.
Excited State energies (eV)
[0.32132876 0.35668837 1.02991782 1.57153826 1.62949738 1.66312547
 1.70222118 4.50073469 4.53790762 4.64059581]
