 
:: initializing oneAPI environment ...
   slurm_script: BASH_VERSION = 4.2.46(1)-release
   args: Using "$@" for setvars.sh arguments: --force
:: advisor -- latest
:: ccl -- latest
:: clck -- latest
:: compiler -- latest
:: dal -- latest
:: debugger -- latest
:: dev-utilities -- latest
:: dnnl -- latest
:: dpcpp-ct -- latest
:: dpl -- latest
:: inspector -- latest
:: intelpython -- latest
:: ipp -- latest
:: ippcp -- latest
:: ipp -- latest
:: itac -- latest
:: mkl -- latest
:: mpi -- latest
:: tbb -- latest
:: vpl -- latest
:: vtune -- latest
:: oneAPI environment initialized ::
 
SLURM_CPUS_PER_TASK = 28
SLURM_MEM_PER_NODE = 256000
#INFO: **** input file is /home/yangjunjie/work/py-ch3-cl/work/step_-5/main.py ****
import sys
import pyscf
from pyscf import tdscf

def main(xyz_file, basis="631g*", xc="b3lyp", output="ene.out"):
    xyz = None

    with open(xyz_file, "r") as xyz:
        xyz = xyz.readlines()[2:]
        xyz = "".join(xyz)

    mol = pyscf.gto.Mole()
    mol.atom = xyz
    mol.basis = basis
    mol.verbose = 5
    mol.build()

    if xc is not None and xc != "hf":
        mf = pyscf.scf.RKS(mol)
        mf.xc = xc
        mf.kernel()
    else:
        mf = pyscf.scf.RHF(mol)
        mf.kernel()

    ene_mf = mf.e_tot

    tda = pyscf.tdscf.TDA(mf)
    tda.nstates = 10
    tda.kernel()
    ene_tda = tda.e[:5]
    dip_tda = tda.transition_dipole()[:5]

    rpa = pyscf.tdscf.RPA(mf)
    rpa.nstates = 10
    rpa.kernel()
    ene_rpa = rpa.e[:5]
    dip_rpa = rpa.transition_dipole()[:5]

    with open(output, "w") as f:
        f.write(f"RKS energy: {ene_mf: 12.8f}\n")
        f.write("TDA results:\n")
        for i, (ene, dip) in enumerate(zip(ene_tda, dip_tda)):
            f.write(f" {i:2d} {ene: 12.8f} {dip[0]: 12.8f} {dip[1]: 12.8f} {dip[2]: 12.8f}\n")
        
        f.write("\nRPA results:\n")
        for i, (ene, dip) in enumerate(zip(ene_rpa, dip_rpa)):
            f.write(f" {i:2d} {ene: 12.8f} {dip[0]: 12.8f} {dip[1]: 12.8f} {dip[2]: 12.8f}\n")

if __name__ == "__main__":
    xyz = sys.argv[1]
    main(xyz, basis="631g*", xc="b3lyp", output="out.log")
#INFO: ******************** input file end ********************


System: uname_result(system='Linux', node='pauling003', release='3.10.0-327.36.3.el7.x86_64', version='#1 SMP Thu Oct 20 04:56:07 EDT 2016', machine='x86_64')  Threads 28
Python 3.9.7 (default, Oct 27 2021, 01:23:21) 
[GCC 9.3.0]
numpy 1.21.2  scipy 1.6.2
Date: Tue Sep 27 23:12:29 2022
PySCF version 2.0.1
PySCF path  /home/yangjunjie/packages/pyscf/pyscf-main
GIT ORIG_HEAD 14b880cdc4bf7bb64f3989a147c0b04622efc498
GIT HEAD (branch master) 9d5b5bd309d1cc55fbd1a0ec76e26b5b0c7f76af

[ENV] PYSCF_MAX_MEMORY 256000
[ENV] PYSCF_TMPDIR /scratch/global/yangjunjie/
[CONFIG] conf_file /home/yangjunjie/.pyscf_conf.py
[INPUT] verbose = 5
[INPUT] max_memory = 256000 
[INPUT] num. atoms = 16
[INPUT] num. electrons = 68
[INPUT] charge = 0
[INPUT] spin (= nelec alpha-beta = 2S) = 0
[INPUT] symmetry False subgroup None
[INPUT] Mole.unit = angstrom
[INPUT]  1 C      0.000000010000   1.163217110000   1.058186040000 AA    0.000000018897   2.198161761308   1.999681804438 Bohr
[INPUT]  2 C      0.000000000000   1.199787430000   2.440515440000 AA    0.000000000000   2.267269650396   4.611905784372 Bohr
[INPUT]  3 C     -0.000000010000  -0.012511260000   3.127666500000 AA   -0.000000018897  -0.023642854873   5.910433093977 Bohr
[INPUT]  4 C     -0.000000010000  -1.211966680000   2.417234570000 AA   -0.000000018897  -2.290285097298   4.567911316131 Bohr
[INPUT]  5 C      0.000000000000  -1.148800140000   1.036214530000 AA    0.000000000000  -2.170917636462   1.958161667995 Bohr
[INPUT]  6 N      0.000000010000   0.013843830000   0.397031960000 AA    0.000000018897   0.026161047215   0.750281667099 Bohr
[INPUT]  7 C     -0.000000010000   0.003009070000  -1.864657700000 AA   -0.000000018897   0.005686318190  -3.523692369061 Bohr
[INPUT]  8 H      0.000000020000   2.066733680000   0.448787220000 AA    0.000000037795   3.905560627614   0.848084934005 Bohr
[INPUT]  9 H      0.000000000000   2.150318690000   2.956381610000 AA    0.000000000000   4.063513404634   5.586751562601 Bohr
[INPUT] 10 H     -0.000000010000  -0.022589360000   4.208203700000 AA   -0.000000018897  -0.042687703729   7.952352469381 Bohr
[INPUT] 11 H     -0.000000020000  -2.171937690000   2.915624610000 AA   -0.000000037795  -4.104367393720   5.509731994942 Bohr
[INPUT] 12 H      0.000000000000  -2.039964450000   0.408231320000 AA    0.000000000000  -3.854974114349   0.771445390270 Bohr
[INPUT] 13 H     -0.000000030000   1.067094350000  -1.650050610000 AA   -0.000000056692   2.016516070571  -3.118143744572 Bohr
[INPUT] 14 H     -0.921635320000  -0.525434190000  -1.639231230000 AA   -1.741638341526  -0.992926715583  -3.097698079534 Bohr
[INPUT] 15 H      0.921635360000  -0.525434150000  -1.639231230000 AA    1.741638417115  -0.992926639994  -3.097698079534 Bohr
[INPUT] 16 Cl    -0.000000010000   0.002896350000  -3.847161230000 AA   -0.000000018897   0.005473308261  -7.270081081745 Bohr
[INPUT] ---------------- BASIS SET ---------------- 
[INPUT] l, kappa, [nprim/nctr], expnt,             c_1 c_2 ...
[INPUT] C
[INPUT] 0    0    [6    /1   ]  3047.5249         0.0018347
                                457.36951         0.0140373
                                103.94869         0.0688426
                                29.210155         0.2321844
                                9.286663          0.4679413
                                3.163927          0.362312
[INPUT] 0    0    [3    /1   ]  7.8682724         -0.1193324
                                1.8812885         -0.1608542
                                0.5442493         1.1434564
[INPUT] 0    0    [1    /1   ]  0.1687144            1
[INPUT] 1    0    [3    /1   ]  7.8682724         0.0689991
                                1.8812885         0.316424
                                0.5442493         0.7443083
[INPUT] 1    0    [1    /1   ]  0.1687144            1
[INPUT] 2    0    [1    /1   ]  0.8                  1
[INPUT] H
[INPUT] 0    0    [3    /1   ]  18.731137         0.0334946
                                2.8253937         0.23472695
                                0.6401217         0.81375733
[INPUT] 0    0    [1    /1   ]  0.1612778            1
[INPUT] Cl
[INPUT] 0    0    [6    /1   ]  25180.1           0.001833
                                3780.35           0.014034
                                860.474           0.069097
                                242.145           0.237452
                                77.3349           0.483034
                                26.247            0.339856
[INPUT] 0    0    [6    /1   ]  491.765           -0.0022974
                                116.984           -0.030714
                                37.4153           -0.112528
                                13.7834           0.045016
                                5.45215           0.589353
                                2.22588           0.465206
[INPUT] 0    0    [3    /1   ]  3.18649           -0.25183
                                1.14427           0.061589
                                0.420377          1.06018
[INPUT] 0    0    [1    /1   ]  0.142657             1
[INPUT] 1    0    [6    /1   ]  491.765           0.0039894
                                116.984           0.030318
                                37.4153           0.12988
                                13.7834           0.327951
                                5.45215           0.453527
                                2.22588           0.252154
[INPUT] 1    0    [3    /1   ]  3.18649           -0.014299
                                1.14427           0.323572
                                0.420377          0.743507
[INPUT] 1    0    [1    /1   ]  0.142657             1
[INPUT] 2    0    [1    /1   ]  0.75                 1
[INPUT] N
[INPUT] 0    0    [6    /1   ]  4173.511          0.0018348
                                627.4579          0.013995
                                142.9021          0.068587
                                40.23433          0.232241
                                12.82021          0.46907
                                4.390437          0.360455
[INPUT] 0    0    [3    /1   ]  11.626358         -0.114961
                                2.71628           -0.169118
                                0.772218          1.145852
[INPUT] 0    0    [1    /1   ]  0.2120313            1
[INPUT] 1    0    [3    /1   ]  11.626358         0.06758
                                2.71628           0.323907
                                0.772218          0.740895
[INPUT] 1    0    [1    /1   ]  0.2120313            1
[INPUT] 2    0    [1    /1   ]  0.8                  1

nuclear repulsion = 380.76985925852
number of shells = 66
number of NR pGTOs = 272
number of NR cGTOs = 132
basis = 631g*
ecp = {}
CPU time:         0.39


******** <class 'pyscf.dft.rks.RKS'> ********
method = RKS
initial guess = minao
damping factor = 0
level_shift factor = 0
DIIS = <class 'pyscf.scf.diis.CDIIS'>
diis_start_cycle = 1
diis_space = 8
SCF conv_tol = 1e-09
SCF conv_tol_grad = None
SCF max_cycles = 50
direct_scf = True
direct_scf_tol = 1e-13
chkfile to save SCF result = /scratch/global/yangjunjie/tmpmvlm93dq
max_memory 256000 MB (current use 81 MB)
XC library pyscf.dft.libxc version 5.2.0
    S. Lehtola, C. Steigemann, M. J. Oliveira, and M. A. Marques, SoftwareX 7, 1 (2018)
XC functionals = b3lyp
    P. A. M. Dirac, Math. Proc. Cambridge Philos. Soc. 26, 376 (1930)
    F. Bloch, Z. Phys. 57, 545 (1929)
    A. D. Becke, Phys. Rev. A 38, 3098 (1988)
    C. Lee, W. Yang, and R. G. Parr, Phys. Rev. B 37, 785 (1988)
    B. Miehlich, A. Savin, H. Stoll, and H. Preuss, Chem. Phys. Lett. 157, 200 (1989)
    S. H. Vosko, L. Wilk, and M. Nusair, Can. J. Phys. 58, 1200 (1980)
radial grids: 
    Treutler-Ahlrichs [JCP 102, 346 (1995); DOI:10.1063/1.469408] (M4) radial grids
    
becke partition: Becke, JCP 88, 2547 (1988); DOI:10.1063/1.454033
pruning grids: <function nwchem_prune at 0x7f917b30cee0>
grids dens level: 3
symmetrized grids: False
atomic radii adjust function: <function treutler_atomic_radii_adjust at 0x7f917b30ce50>
small_rho_cutoff = 1e-07
Set gradient conv threshold to 3.16228e-05
atom C rad-grids = 75, ang-grids = [ 50  50  50  50  50  50  50  50  50  50  50  50  50  50  50  50  50  50
  50  50  50  50  50  86  86  86  86  86  86  86  86  86  86 266 266 266
 266 266 266 266 302 302 302 302 302 302 302 302 302 302 302 302 302 302
 302 302 302 302 302 302 266 266 266 266 266 266 266 266 266 266 266 266
 266 266 266]
atom N rad-grids = 75, ang-grids = [ 50  50  50  50  50  50  50  50  50  50  50  50  50  50  50  50  50  50
  50  50  50  50  50  86  86  86  86  86  86  86  86  86 266 266 266 266
 266 266 266 302 302 302 302 302 302 302 302 302 302 302 302 302 302 302
 302 302 302 302 266 266 266 266 266 266 266 266 266 266 266 266 266 266
 266 266 266]
atom H rad-grids = 50, ang-grids = [ 50  50  50  50  50  50  50  50  50  50  50  50  50  50  86  86  86  86
 266 266 266 266 302 302 302 302 302 302 302 302 302 302 302 302 302 266
 266 266 266 266 266 266 266 266 266 266 266 266 266 266]
atom Cl rad-grids = 80, ang-grids = [ 50  50  50  50  50  50  50  50  50  50  50  50  50  50  50  50  50  50
  50  50  50  50  50  50  86  86  86  86  86  86  86  86  86  86  86  86
  86 350 350 350 350 350 350 350 350 350 434 434 434 434 434 434 434 434
 434 434 434 434 434 434 434 434 434 434 350 350 350 350 350 350 350 350
 350 350 350 350 350 350 350 350]
tot grids = 196530
Drop grids 33497
    CPU time for setting up grids      3.08 sec, wall time      0.12 sec
nelec by numeric integration = 67.97656246307227
    CPU time for vxc      5.88 sec, wall time      0.21 sec
E1 = -1774.7718331501858  Ecoul = 715.3760505866459  Exc = -70.35983409474608
init E= -748.985757399766
cond(S) = 6605.014235997935
    CPU time for initialize scf     15.93 sec, wall time      0.64 sec
  HOMO = -0.293384319125516  LUMO = -0.0990866270129187
  mo_energy =
[-1.01595193e+02 -1.44099076e+01 -1.02923043e+01 -1.02917789e+01
 -1.02903238e+01 -1.02868283e+01 -1.02864076e+01 -1.02826499e+01
 -9.53559028e+00 -7.29132674e+00 -7.29071613e+00 -7.29071517e+00
 -1.10615500e+00 -9.37552733e-01 -8.99209338e-01 -8.91122425e-01
 -7.63204316e-01 -7.13772114e-01 -7.05261717e-01 -5.78483103e-01
 -5.33298940e-01 -5.10921301e-01 -4.74685722e-01 -4.73255504e-01
 -4.60626971e-01 -4.52254220e-01 -4.36331842e-01 -4.11807014e-01
 -3.98227229e-01 -3.49040987e-01 -3.47763046e-01 -3.24498552e-01
 -2.97345090e-01 -2.93384319e-01 -9.90866270e-02 -7.88405666e-02
 -6.09326535e-02  5.11522766e-02  6.98790026e-02  7.10605098e-02
  9.15172945e-02  1.14416319e-01  1.23881785e-01  1.28269691e-01
  1.42693964e-01  1.68930771e-01  2.07059793e-01  2.39583306e-01
  2.60273337e-01  2.66310130e-01  3.53034416e-01  3.90471708e-01
  4.01171775e-01  4.13708793e-01  4.14069138e-01  4.44220124e-01
  4.61700746e-01  4.79382558e-01  4.90383281e-01  5.20379087e-01
  5.24783272e-01  5.36106204e-01  5.41419713e-01  5.51856342e-01
  5.56458860e-01  5.60704013e-01  5.89742295e-01  6.11389494e-01
  6.40994078e-01  6.42250564e-01  7.25438911e-01  7.55985309e-01
  7.64047253e-01  7.72217443e-01  7.91567515e-01  7.92260108e-01
  7.98747748e-01  8.01053725e-01  8.35576105e-01  8.42291097e-01
  8.60005019e-01  8.70747905e-01  8.80728953e-01  8.92694836e-01
  9.11142446e-01  9.36585648e-01  9.69432533e-01  9.92484758e-01
  1.03697748e+00  1.08488463e+00  1.12302629e+00  1.16177377e+00
  1.17866649e+00  1.23281026e+00  1.30701869e+00  1.35062870e+00
  1.40003547e+00  1.40979665e+00  1.41485894e+00  1.44403699e+00
  1.45479336e+00  1.48529041e+00  1.62779121e+00  1.62923357e+00
  1.65752249e+00  1.74454998e+00  1.76780495e+00  1.78544281e+00
  1.86796770e+00  1.88553479e+00  1.99699823e+00  2.05573343e+00
  2.06385086e+00  2.07560373e+00  2.09386347e+00  2.10555725e+00
  2.15355299e+00  2.16431099e+00  2.18907311e+00  2.23118300e+00
  2.25197825e+00  2.29963502e+00  2.48016647e+00  2.48819359e+00
  2.59261833e+00  2.61494945e+00  2.63026853e+00  2.65150608e+00
  2.70063752e+00  2.70368598e+00  2.96271835e+00  3.33401712e+00]
nelec by numeric integration = 68.00004719531735
    CPU time for vxc      5.85 sec, wall time      0.21 sec
E1 = -1782.990721340197  Ecoul = 724.9723358297819  Exc = -70.81291005164796
cycle= 1 E= -748.061436303543  delta_E= 0.924  |g|= 0.388  |ddm|= 3.92
    CPU time for cycle= 1      6.33 sec, wall time      0.23 sec
  HOMO = -0.18048927733069  LUMO = -0.0108043962034745
  mo_energy =
[-1.01257311e+02 -1.42487301e+01 -1.02116787e+01 -1.02113600e+01
 -1.01969663e+01 -1.01454889e+01 -1.01106317e+01 -1.01104533e+01
 -9.22320565e+00 -6.98176022e+00 -6.97401076e+00 -6.97399821e+00
 -9.31292139e-01 -7.77485684e-01 -7.57024707e-01 -7.26619349e-01
 -6.23579055e-01 -6.22051471e-01 -6.10352954e-01 -5.29891914e-01
 -4.71710134e-01 -4.63680345e-01 -4.36572296e-01 -4.25095773e-01
 -4.17060883e-01 -3.93266460e-01 -3.87450008e-01 -3.58382584e-01
 -3.00063517e-01 -2.68714599e-01 -2.58017857e-01 -2.06293125e-01
 -1.80876311e-01 -1.80489277e-01 -1.08043962e-02 -2.77991826e-03
  6.54491474e-02  1.00273180e-01  1.12429672e-01  1.21427691e-01
  1.46495369e-01  1.56056772e-01  1.58404404e-01  1.72091745e-01
  1.75978017e-01  2.05681138e-01  2.69650133e-01  2.96792575e-01
  3.28584063e-01  3.30831418e-01  4.38087041e-01  4.70202880e-01
  5.02058153e-01  5.11942945e-01  5.37173413e-01  5.39744350e-01
  5.52337599e-01  5.67370807e-01  5.72773482e-01  5.79595027e-01
  5.89527192e-01  6.04386215e-01  6.10200216e-01  6.15118166e-01
  6.18303431e-01  6.21711889e-01  6.60663997e-01  6.64075678e-01
  7.02945204e-01  7.18559839e-01  7.95423489e-01  8.12937948e-01
  8.44262711e-01  8.57277778e-01  8.63656403e-01  8.76565980e-01
  9.03283067e-01  9.08240022e-01  9.15147357e-01  9.34078009e-01
  9.46529678e-01  9.93962069e-01  1.02834532e+00  1.03550340e+00
  1.04030599e+00  1.05005410e+00  1.06257491e+00  1.07692321e+00
  1.09922301e+00  1.13103624e+00  1.17026490e+00  1.21913254e+00
  1.26771744e+00  1.35318805e+00  1.38993159e+00  1.40289523e+00
  1.45320904e+00  1.49598172e+00  1.49939587e+00  1.51533687e+00
  1.54220034e+00  1.55086204e+00  1.71784254e+00  1.71963699e+00
  1.73044713e+00  1.81424307e+00  1.86992745e+00  1.87426567e+00
  1.95798067e+00  1.96729770e+00  2.09656784e+00  2.15294622e+00
  2.16093632e+00  2.16108608e+00  2.18930383e+00  2.19084193e+00
  2.24115926e+00  2.24672552e+00  2.27063355e+00  2.31914771e+00
  2.35178300e+00  2.38327141e+00  2.56770264e+00  2.57553007e+00
  2.68518278e+00  2.72241769e+00  2.72266761e+00  2.75447711e+00
  2.80445136e+00  2.81507150e+00  3.06672833e+00  3.44179197e+00]
nelec by numeric integration = 68.00005140918918
    CPU time for vxc      6.13 sec, wall time      0.22 sec
E1 = -1775.2854904404003  Ecoul = 716.6703706030826  Exc = -70.21780187211492
cycle= 2 E= -748.063062450912  delta_E= -0.00163  |g|= 0.407  |ddm|= 1.07
    CPU time for cycle= 2      6.63 sec, wall time      0.24 sec
  HOMO = -0.245498694901056  LUMO = -0.0421946005052281
  mo_energy =
[-1.01453694e+02 -1.43488816e+01 -1.02223350e+01 -1.02215933e+01
 -1.02213021e+01 -1.02142705e+01 -1.02141304e+01 -1.01903362e+01
 -9.38370111e+00 -7.14611451e+00 -7.13774643e+00 -7.13773543e+00
 -9.67713587e-01 -8.25189859e-01 -7.85407444e-01 -7.65811294e-01
 -6.53814710e-01 -6.53268232e-01 -6.39558851e-01 -5.48662499e-01
 -5.00563683e-01 -4.90870992e-01 -4.54852596e-01 -4.29282461e-01
 -4.24994136e-01 -4.14343496e-01 -4.07741827e-01 -3.87970894e-01
 -3.40408118e-01 -3.07742506e-01 -2.83883131e-01 -2.49738431e-01
 -2.45873695e-01 -2.45498695e-01 -4.21946005e-02 -2.80776271e-02
  4.34774789e-02  8.38983786e-02  1.12156190e-01  1.19566024e-01
  1.30052323e-01  1.44053099e-01  1.50328134e-01  1.67594453e-01
  1.79514949e-01  2.07260394e-01  2.50368204e-01  2.76324675e-01
  3.08191106e-01  3.11004106e-01  4.26790746e-01  4.42000524e-01
  4.51712992e-01  4.93459457e-01  5.01487899e-01  5.01808846e-01
  5.23569719e-01  5.26035279e-01  5.46473579e-01  5.64525500e-01
  5.69437449e-01  5.79228557e-01  5.83403597e-01  5.90792325e-01
  5.97280114e-01  5.97368200e-01  6.42302719e-01  6.43652293e-01
  6.74001267e-01  7.03367051e-01  7.80814091e-01  8.05543283e-01
  8.12811144e-01  8.34688811e-01  8.41387969e-01  8.47587037e-01
  8.85746323e-01  8.92234747e-01  9.07738168e-01  9.12714822e-01
  9.26301709e-01  9.52938887e-01  9.60951642e-01  9.83300742e-01
  9.92951338e-01  1.00196817e+00  1.01664419e+00  1.05568675e+00
  1.07390192e+00  1.11571009e+00  1.15080559e+00  1.19741754e+00
  1.23162675e+00  1.31594357e+00  1.35712048e+00  1.38234362e+00
  1.44216754e+00  1.45281618e+00  1.46286079e+00  1.49336220e+00
  1.50948539e+00  1.53460436e+00  1.70224289e+00  1.71484358e+00
  1.71839169e+00  1.79249164e+00  1.83354891e+00  1.84273983e+00
  1.92084365e+00  1.94112775e+00  2.05944168e+00  2.12017036e+00
  2.12880417e+00  2.14538002e+00  2.14834123e+00  2.16347187e+00
  2.21363601e+00  2.25207425e+00  2.27545146e+00  2.28930884e+00
  2.31119949e+00  2.35411655e+00  2.53511964e+00  2.54411430e+00
  2.64946609e+00  2.68397759e+00  2.69147786e+00  2.72089328e+00
  2.76991841e+00  2.77077359e+00  3.03395763e+00  3.40636413e+00]
nelec by numeric integration = 68.00004861043004
    CPU time for vxc      5.87 sec, wall time      0.21 sec
E1 = -1778.7951976668032  Ecoul = 720.3999937025429  Exc = -70.48276932493769
cycle= 3 E= -748.108114030678  delta_E= -0.0451  |g|= 0.0726  |ddm|= 0.525
    CPU time for cycle= 3      6.38 sec, wall time      0.23 sec
  HOMO = -0.252499915415182  LUMO = -0.0439515301640736
  mo_energy =
[-1.01463354e+02 -1.43517474e+01 -1.02434197e+01 -1.02434154e+01
 -1.02288581e+01 -1.02196449e+01 -1.02123995e+01 -1.02122974e+01
 -9.39303654e+00 -7.15538428e+00 -7.14716083e+00 -7.14714976e+00
 -9.73254742e-01 -8.23805626e-01 -7.90109342e-01 -7.76125122e-01
 -6.63258034e-01 -6.56655159e-01 -6.45683980e-01 -5.50855012e-01
 -5.04061981e-01 -4.91798161e-01 -4.58410875e-01 -4.38829970e-01
 -4.28179977e-01 -4.25296092e-01 -4.16122434e-01 -3.89462719e-01
 -3.50294847e-01 -3.07615707e-01 -2.87456462e-01 -2.57775452e-01
 -2.52878631e-01 -2.52499915e-01 -4.39515302e-02 -3.12392752e-02
  3.19980003e-02  8.30997346e-02  1.06419542e-01  1.16637152e-01
  1.27761577e-01  1.41395654e-01  1.49621906e-01  1.67039647e-01
  1.70649190e-01  2.01525655e-01  2.48253088e-01  2.76550804e-01
  3.05658604e-01  3.08770829e-01  4.23343226e-01  4.38186644e-01
  4.47571026e-01  4.89715375e-01  4.95515079e-01  4.96484372e-01
  5.20115960e-01  5.22033703e-01  5.40752838e-01  5.61456323e-01
  5.67361521e-01  5.76600260e-01  5.81828641e-01  5.89649440e-01
  5.92902375e-01  5.94801152e-01  6.35586226e-01  6.40348798e-01
  6.74646688e-01  6.94832293e-01  7.74703700e-01  8.01046818e-01
  8.15650240e-01  8.31130951e-01  8.34492843e-01  8.42309565e-01
  8.82601034e-01  8.84564183e-01  8.96463367e-01  9.09702384e-01
  9.20364108e-01  9.46745570e-01  9.52390817e-01  9.78560289e-01
  9.85169032e-01  9.94706446e-01  1.01111663e+00  1.04752322e+00
  1.07003648e+00  1.11362280e+00  1.15155415e+00  1.19546286e+00
  1.22866830e+00  1.30727697e+00  1.35486152e+00  1.38155114e+00
  1.43977225e+00  1.45299155e+00  1.46159081e+00  1.48682651e+00
  1.50443630e+00  1.52797618e+00  1.69851456e+00  1.69965511e+00
  1.69966067e+00  1.78925977e+00  1.83029422e+00  1.83839864e+00
  1.92174643e+00  1.93773605e+00  2.05706465e+00  2.11696276e+00
  2.12563719e+00  2.13111727e+00  2.14866187e+00  2.15770903e+00
  2.20710930e+00  2.23537119e+00  2.25882215e+00  2.28454064e+00
  2.31031728e+00  2.34913122e+00  2.53243458e+00  2.54088615e+00
  2.64762253e+00  2.68078951e+00  2.68651773e+00  2.71643685e+00
  2.76550271e+00  2.76963798e+00  3.02810065e+00  3.40233598e+00]
nelec by numeric integration = 68.00004876995027
    CPU time for vxc      5.98 sec, wall time      0.21 sec
E1 = -1779.2182560055644  Ecoul = 720.8493452156441  Exc = -70.51027355546864
cycle= 4 E= -748.109325086869  delta_E= -0.00121  |g|= 0.0285  |ddm|= 0.0974
    CPU time for cycle= 4      6.50 sec, wall time      0.23 sec
  HOMO = -0.252056284056391  LUMO = -0.0417397714754496
  mo_energy =
[-1.01459335e+02 -1.43426288e+01 -1.02366152e+01 -1.02364472e+01
 -1.02231721e+01 -1.02202802e+01 -1.02121274e+01 -1.02121089e+01
 -9.39039195e+00 -7.15263935e+00 -7.14436838e+00 -7.14435696e+00
 -9.67444904e-01 -8.22757733e-01 -7.86941570e-01 -7.74258990e-01
 -6.60932789e-01 -6.54023485e-01 -6.43793054e-01 -5.49269552e-01
 -5.01568575e-01 -4.90797426e-01 -4.56142893e-01 -4.35427176e-01
 -4.25535934e-01 -4.24189015e-01 -4.12900475e-01 -3.88163098e-01
 -3.48184359e-01 -3.05880821e-01 -2.84943921e-01 -2.54031121e-01
 -2.52418053e-01 -2.52056284e-01 -4.17397715e-02 -2.89590279e-02
  3.48650764e-02  8.39179033e-02  1.07838175e-01  1.18128671e-01
  1.29881109e-01  1.42633477e-01  1.50360904e-01  1.67559844e-01
  1.72707225e-01  2.03379255e-01  2.50186213e-01  2.77407757e-01
  3.08065630e-01  3.10407888e-01  4.25032127e-01  4.38832080e-01
  4.48996595e-01  4.91637578e-01  4.96027668e-01  4.97327044e-01
  5.21220143e-01  5.23811342e-01  5.42248362e-01  5.63773671e-01
  5.69247153e-01  5.78864649e-01  5.82898970e-01  5.90720679e-01
  5.94359580e-01  5.95659186e-01  6.39038606e-01  6.42316136e-01
  6.75189807e-01  6.97819020e-01  7.77439213e-01  8.03339741e-01
  8.15100450e-01  8.32913713e-01  8.35697604e-01  8.46358269e-01
  8.84015195e-01  8.86940012e-01  8.98741537e-01  9.10862862e-01
  9.21795194e-01  9.47607956e-01  9.53476321e-01  9.80197677e-01
  9.86489467e-01  9.95937808e-01  1.01401360e+00  1.04975759e+00
  1.07173133e+00  1.11559802e+00  1.15222084e+00  1.19731668e+00
  1.23114701e+00  1.30897009e+00  1.35716750e+00  1.38341549e+00
  1.44184240e+00  1.45432200e+00  1.46282095e+00  1.49072786e+00
  1.50832863e+00  1.53135460e+00  1.70200449e+00  1.70301861e+00
  1.70385310e+00  1.79153222e+00  1.83219745e+00  1.84182625e+00
  1.92280777e+00  1.94026094e+00  2.05918149e+00  2.11925649e+00
  2.12824204e+00  2.13470660e+00  2.14993381e+00  2.16125366e+00
  2.21049779e+00  2.23909421e+00  2.26260552e+00  2.28725331e+00
  2.31187437e+00  2.35283651e+00  2.53522208e+00  2.54328216e+00
  2.64956894e+00  2.68332434e+00  2.68958922e+00  2.71915830e+00
  2.76844638e+00  2.77150814e+00  3.03176256e+00  3.40492977e+00]
nelec by numeric integration = 68.00004883703339
    CPU time for vxc      5.87 sec, wall time      0.21 sec
E1 = -1779.0206941211982  Ecoul = 720.6398804958638  Exc = -70.49855893348479
cycle= 5 E= -748.109513300299  delta_E= -0.000188  |g|= 0.0128  |ddm|= 0.0371
    CPU time for cycle= 5      6.39 sec, wall time      0.23 sec
  HOMO = -0.251542664683432  LUMO = -0.0416689329851089
  mo_energy =
[-1.01456672e+02 -1.43472378e+01 -1.02365156e+01 -1.02364290e+01
 -1.02202803e+01 -1.02190902e+01 -1.02109269e+01 -1.02108986e+01
 -9.38839231e+00 -7.15056882e+00 -7.14230620e+00 -7.14229471e+00
 -9.68671389e-01 -8.22041086e-01 -7.86778301e-01 -7.73760419e-01
 -6.60614676e-01 -6.54102239e-01 -6.43345129e-01 -5.48898585e-01
 -5.01414306e-01 -4.90438697e-01 -4.55918629e-01 -4.35704694e-01
 -4.25390049e-01 -4.23818762e-01 -4.13053452e-01 -3.87812028e-01
 -3.47939139e-01 -3.05705221e-01 -2.84638254e-01 -2.55092512e-01
 -2.51924611e-01 -2.51542665e-01 -4.16689330e-02 -2.86722638e-02
  3.51752605e-02  8.42828215e-02  1.07826343e-01  1.18205946e-01
  1.30032104e-01  1.42710105e-01  1.50638640e-01  1.67840193e-01
  1.72522311e-01  2.03278972e-01  2.50320777e-01  2.77908173e-01
  3.08019489e-01  3.10613347e-01  4.25092427e-01  4.39167086e-01
  4.49223066e-01  4.91863380e-01  4.96314146e-01  4.97666580e-01
  5.21398543e-01  5.23925661e-01  5.42469194e-01  5.63889833e-01
  5.69577569e-01  5.79127145e-01  5.83463285e-01  5.91237034e-01
  5.94838171e-01  5.96268340e-01  6.38420238e-01  6.42554686e-01
  6.75824498e-01  6.97734776e-01  7.77506121e-01  8.03467924e-01
  8.16075664e-01  8.33100059e-01  8.36008739e-01  8.45150023e-01
  8.84346189e-01  8.87031016e-01  8.98939492e-01  9.11347313e-01
  9.22227420e-01  9.48236942e-01  9.54029759e-01  9.80480684e-01
  9.86919617e-01  9.96402354e-01  1.01365237e+00  1.04984273e+00
  1.07197626e+00  1.11567176e+00  1.15275245e+00  1.19740442e+00
  1.23137615e+00  1.30908124e+00  1.35748130e+00  1.38330730e+00
  1.44179207e+00  1.45486237e+00  1.46362897e+00  1.49056158e+00
  1.50767589e+00  1.53062295e+00  1.70184121e+00  1.70307725e+00
  1.70399392e+00  1.79160835e+00  1.83275786e+00  1.84135530e+00
  1.92331340e+00  1.94051903e+00  2.05970904e+00  2.11965405e+00
  2.12849628e+00  2.13490401e+00  2.15050203e+00  2.16119191e+00
  2.21040755e+00  2.23919842e+00  2.26267051e+00  2.28755368e+00
  2.31223420e+00  2.35243901e+00  2.53519357e+00  2.54364598e+00
  2.64997427e+00  2.68347323e+00  2.68944620e+00  2.71939979e+00
  2.76846156e+00  2.77179647e+00  3.03138313e+00  3.40506521e+00]
nelec by numeric integration = 68.00004880071084
    CPU time for vxc      5.88 sec, wall time      0.21 sec
E1 = -1779.017626159471  Ecoul = 720.6359408126943  Exc = -70.49772408558114
cycle= 6 E= -748.109550173838  delta_E= -3.69e-05  |g|= 0.00455  |ddm|= 0.0161
    CPU time for cycle= 6      6.39 sec, wall time      0.23 sec
  HOMO = -0.251617350883151  LUMO = -0.0415774682507733
  mo_energy =
[-1.01456713e+02 -1.43458720e+01 -1.02366574e+01 -1.02365690e+01
 -1.02205516e+01 -1.02193081e+01 -1.02111736e+01 -1.02111506e+01
 -9.38844683e+00 -7.15062134e+00 -7.14235797e+00 -7.14234644e+00
 -9.68440183e-01 -8.22140828e-01 -7.86818778e-01 -7.73894587e-01
 -6.60594833e-01 -6.54003203e-01 -6.43376758e-01 -5.48920839e-01
 -5.01392764e-01 -4.90446260e-01 -4.55987828e-01 -4.35649235e-01
 -4.25420377e-01 -4.23843609e-01 -4.13027379e-01 -3.87826872e-01
 -3.47939060e-01 -3.05656193e-01 -2.84727866e-01 -2.54724891e-01
 -2.51995536e-01 -2.51617351e-01 -4.15774683e-02 -2.87172927e-02
  3.51512415e-02  8.42571107e-02  1.07863333e-01  1.18218981e-01
  1.30081035e-01  1.42739131e-01  1.50640957e-01  1.67835357e-01
  1.72533022e-01  2.03319171e-01  2.50306498e-01  2.77866110e-01
  3.08083569e-01  3.10632673e-01  4.25133912e-01  4.39183186e-01
  4.49203737e-01  4.91816014e-01  4.96257925e-01  4.97600452e-01
  5.21286124e-01  5.23959711e-01  5.42433268e-01  5.63897786e-01
  5.69510346e-01  5.79061731e-01  5.83366611e-01  5.91154120e-01
  5.94768334e-01  5.96177363e-01  6.38611946e-01  6.42516349e-01
  6.75746651e-01  6.97800722e-01  7.77507376e-01  8.03470004e-01
  8.15952971e-01  8.33125005e-01  8.35989204e-01  8.45545570e-01
  8.84345166e-01  8.87062234e-01  8.98898414e-01  9.11303089e-01
  9.22187907e-01  9.48171295e-01  9.53965918e-01  9.80493809e-01
  9.86916174e-01  9.96372723e-01  1.01380494e+00  1.04985744e+00
  1.07195650e+00  1.11569708e+00  1.15267799e+00  1.19742233e+00
  1.23136434e+00  1.30906801e+00  1.35741270e+00  1.38339648e+00
  1.44185611e+00  1.45478870e+00  1.46349533e+00  1.49057640e+00
  1.50786899e+00  1.53084338e+00  1.70191729e+00  1.70305539e+00
  1.70393614e+00  1.79164272e+00  1.83265844e+00  1.84154021e+00
  1.92325313e+00  1.94044803e+00  2.05959890e+00  2.11958548e+00
  2.12842767e+00  2.13486509e+00  2.15043149e+00  2.16121640e+00
  2.21046841e+00  2.23914654e+00  2.26263064e+00  2.28750019e+00
  2.31226794e+00  2.35254818e+00  2.53523366e+00  2.54356724e+00
  2.64991909e+00  2.68350244e+00  2.68956855e+00  2.71938904e+00
  2.76851401e+00  2.77182793e+00  3.03155658e+00  3.40512947e+00]
nelec by numeric integration = 68.00004881603368
    CPU time for vxc      6.56 sec, wall time      0.23 sec
E1 = -1779.0153151148397  Ecoul = 720.6332756114983  Exc = -70.49737476048242
cycle= 7 E= -748.109555005304  delta_E= -4.83e-06  |g|= 0.000466  |ddm|= 0.00428
    CPU time for cycle= 7      7.40 sec, wall time      0.26 sec
  HOMO = -0.251672798511446  LUMO = -0.0415821107760305
  mo_energy =
[-1.01456958e+02 -1.43459120e+01 -1.02366014e+01 -1.02364974e+01
 -1.02206856e+01 -1.02194320e+01 -1.02110502e+01 -1.02110342e+01
 -9.38862335e+00 -7.15080631e+00 -7.14254045e+00 -7.14252893e+00
 -9.68435831e-01 -8.22148078e-01 -7.86780715e-01 -7.73947437e-01
 -6.60629893e-01 -6.53993062e-01 -6.43370021e-01 -5.48918540e-01
 -5.01377626e-01 -4.90426554e-01 -4.55959031e-01 -4.35660606e-01
 -4.25441058e-01 -4.23865185e-01 -4.13028359e-01 -3.87819597e-01
 -3.47979079e-01 -3.05669059e-01 -2.84692442e-01 -2.54741949e-01
 -2.52050788e-01 -2.51672799e-01 -4.15821108e-02 -2.86899658e-02
  3.51099357e-02  8.42468585e-02  1.07859583e-01  1.18230993e-01
  1.30093138e-01  1.42738075e-01  1.50640284e-01  1.67836396e-01
  1.72526416e-01  2.03319647e-01  2.50307810e-01  2.77867334e-01
  3.08095533e-01  3.10643283e-01  4.25138558e-01  4.39153568e-01
  4.49199884e-01  4.91813333e-01  4.96222468e-01  4.97580969e-01
  5.21262142e-01  5.23961463e-01  5.42417643e-01  5.63917571e-01
  5.69537110e-01  5.79065251e-01  5.83365400e-01  5.91154284e-01
  5.94753078e-01  5.96174800e-01  6.38610412e-01  6.42540006e-01
  6.75747325e-01  6.97809258e-01  7.77510493e-01  8.03492607e-01
  8.15937530e-01  8.33103310e-01  8.36001136e-01  8.45534789e-01
  8.84334902e-01  8.87046463e-01  8.98864381e-01  9.11299870e-01
  9.22170972e-01  9.48124151e-01  9.53907878e-01  9.80484974e-01
  9.86856215e-01  9.96327754e-01  1.01380840e+00  1.04983631e+00
  1.07196439e+00  1.11569707e+00  1.15268105e+00  1.19743161e+00
  1.23137926e+00  1.30903129e+00  1.35742823e+00  1.38339075e+00
  1.44186226e+00  1.45479664e+00  1.46350376e+00  1.49060532e+00
  1.50787185e+00  1.53084156e+00  1.70191810e+00  1.70303219e+00
  1.70389548e+00  1.79164433e+00  1.83266329e+00  1.84154210e+00
  1.92324739e+00  1.94047776e+00  2.05961451e+00  2.11960114e+00
  2.12845444e+00  2.13483416e+00  2.15042760e+00  2.16124097e+00
  2.21046826e+00  2.23911568e+00  2.26260091e+00  2.28753681e+00
  2.31226065e+00  2.35255968e+00  2.53523644e+00  2.54359319e+00
  2.64992803e+00  2.68351963e+00  2.68958500e+00  2.71941901e+00
  2.76853263e+00  2.77182512e+00  3.03157179e+00  3.40514662e+00]
nelec by numeric integration = 68.00004882061921
    CPU time for vxc      6.01 sec, wall time      0.21 sec
E1 = -1779.0166709864668  Ecoul = 720.6347589657363  Exc = -70.49750229061456
cycle= 8 E= -748.109555052825  delta_E= -4.75e-08  |g|= 0.000207  |ddm|= 0.000641
    CPU time for cycle= 8      6.83 sec, wall time      0.24 sec
  HOMO = -0.251662586670868  LUMO = -0.0415806511944499
  mo_energy =
[-1.01456968e+02 -1.43459032e+01 -1.02366033e+01 -1.02365075e+01
 -1.02206253e+01 -1.02194025e+01 -1.02110941e+01 -1.02110727e+01
 -9.38862187e+00 -7.15080675e+00 -7.14253989e+00 -7.14252837e+00
 -9.68439101e-01 -8.22147594e-01 -7.86793664e-01 -7.73932342e-01
 -6.60621008e-01 -6.54000123e-01 -6.43372803e-01 -5.48919950e-01
 -5.01383239e-01 -4.90440966e-01 -4.55971189e-01 -4.35653575e-01
 -4.25430659e-01 -4.23856745e-01 -4.13026919e-01 -3.87826405e-01
 -3.47971266e-01 -3.05666414e-01 -2.84705889e-01 -2.54741839e-01
 -2.52040648e-01 -2.51662587e-01 -4.15806512e-02 -2.87018731e-02
  3.51222818e-02  8.42461098e-02  1.07862400e-01  1.18225600e-01
  1.30087428e-01  1.42737662e-01  1.50637090e-01  1.67832203e-01
  1.72534551e-01  2.03321573e-01  2.50305473e-01  2.77864639e-01
  3.08088428e-01  3.10636730e-01  4.25136316e-01  4.39153347e-01
  4.49195788e-01  4.91813791e-01  4.96230491e-01  4.97584288e-01
  5.21272277e-01  5.23958283e-01  5.42423332e-01  5.63907280e-01
  5.69526091e-01  5.79063878e-01  5.83362534e-01  5.91152629e-01
  5.94759134e-01  5.96173338e-01  6.38610414e-01  6.42530715e-01
  6.75743828e-01  6.97807752e-01  7.77508950e-01  8.03484358e-01
  8.15940795e-01  8.33106159e-01  8.35991942e-01  8.45536483e-01
  8.84335159e-01  8.87050641e-01  8.98875868e-01  9.11299503e-01
  9.22173832e-01  9.48131567e-01  9.53919025e-01  9.80485991e-01
  9.86865018e-01  9.96334491e-01  1.01380573e+00  1.04984267e+00
  1.07195816e+00  1.11569422e+00  1.15267510e+00  1.19742449e+00
  1.23137308e+00  1.30904162e+00  1.35742118e+00  1.38338867e+00
  1.44185650e+00  1.45478934e+00  1.46350123e+00  1.49059619e+00
  1.50786877e+00  1.53084207e+00  1.70191570e+00  1.70304173e+00
  1.70391308e+00  1.79164256e+00  1.83266109e+00  1.84154000e+00
  1.92324569e+00  1.94046534e+00  2.05960937e+00  2.11959488e+00
  2.12844370e+00  2.13484674e+00  2.15042596e+00  2.16123333e+00
  2.21046868e+00  2.23913109e+00  2.26261589e+00  2.28752365e+00
  2.31226121e+00  2.35255447e+00  2.53523392e+00  2.54358368e+00
  2.64992345e+00  2.68351246e+00  2.68957833e+00  2.71940794e+00
  2.76852647e+00  2.77182506e+00  3.03156684e+00  3.40514016e+00]
nelec by numeric integration = 68.00004882012767
    CPU time for vxc      5.87 sec, wall time      0.21 sec
E1 = -1779.0164352647964  Ecoul = 720.634510710622  Exc = -70.49748976727602
cycle= 9 E= -748.10955506293  delta_E= -1.01e-08  |g|= 4.7e-05  |ddm|= 0.00019
    CPU time for cycle= 9      6.42 sec, wall time      0.23 sec
  HOMO = -0.251653273790232  LUMO = -0.0415867229702375
  mo_energy =
[-1.01456943e+02 -1.43459146e+01 -1.02366121e+01 -1.02365117e+01
 -1.02206430e+01 -1.02193951e+01 -1.02110981e+01 -1.02110806e+01
 -9.38860044e+00 -7.15078486e+00 -7.14251805e+00 -7.14250654e+00
 -9.68445283e-01 -8.22154605e-01 -7.86798469e-01 -7.73925549e-01
 -6.60618901e-01 -6.54005493e-01 -6.43376234e-01 -5.48924417e-01
 -5.01389469e-01 -4.90444040e-01 -4.55974575e-01 -4.35655601e-01
 -4.25432034e-01 -4.23861351e-01 -4.13030357e-01 -3.87831177e-01
 -3.47967316e-01 -3.05672712e-01 -2.84710121e-01 -2.54745269e-01
 -2.52031377e-01 -2.51653274e-01 -4.15867230e-02 -2.87062654e-02
  3.51260148e-02  8.42440821e-02  1.07860922e-01  1.18223744e-01
  1.30082271e-01  1.42735541e-01  1.50634676e-01  1.67830495e-01
  1.72533572e-01  2.03319543e-01  2.50301613e-01  2.77860388e-01
  3.08083940e-01  3.10632961e-01  4.25133241e-01  4.39158496e-01
  4.49196131e-01  4.91812615e-01  4.96236275e-01  4.97586838e-01
  5.21275451e-01  5.23954274e-01  5.42422724e-01  5.63903660e-01
  5.69522724e-01  5.79061045e-01  5.83358557e-01  5.91148122e-01
  5.94755969e-01  5.96170077e-01  6.38606497e-01  6.42527366e-01
  6.75739570e-01  6.97805501e-01  7.77506069e-01  8.03481557e-01
  8.15935542e-01  8.33107902e-01  8.35990054e-01  8.45532511e-01
  8.84332570e-01  8.87050781e-01  8.98879047e-01  9.11295996e-01
  9.22174079e-01  9.48138044e-01  9.53927967e-01  9.80484226e-01
  9.86873477e-01  9.96340314e-01  1.01380244e+00  1.04984312e+00
  1.07195645e+00  1.11569051e+00  1.15267161e+00  1.19742073e+00
  1.23136706e+00  1.30904550e+00  1.35741588e+00  1.38338429e+00
  1.44185302e+00  1.45478323e+00  1.46349514e+00  1.49059156e+00
  1.50786273e+00  1.53083809e+00  1.70191139e+00  1.70304058e+00
  1.70391402e+00  1.79163791e+00  1.83265580e+00  1.84153419e+00
  1.92324009e+00  1.94046108e+00  2.05960349e+00  2.11958972e+00
  2.12843876e+00  2.13484638e+00  2.15041946e+00  2.16122834e+00
  2.21046372e+00  2.23913138e+00  2.26261604e+00  2.28751896e+00
  2.31225409e+00  2.35254889e+00  2.53522789e+00  2.54357882e+00
  2.64991767e+00  2.68350637e+00  2.68957231e+00  2.71940257e+00
  2.76852054e+00  2.77181795e+00  3.03156067e+00  3.40513403e+00]
nelec by numeric integration = 68.00004881979403
    CPU time for vxc      5.84 sec, wall time      0.21 sec
E1 = -1779.0164240992249  Ecoul = 720.6344967181038  Exc = -70.49748694088623
cycle= 10 E= -748.109555063487  delta_E= -5.57e-10  |g|= 1.76e-05  |ddm|= 8.22e-05
    CPU time for cycle= 10      6.34 sec, wall time      0.23 sec
  HOMO = -0.251660586925229  LUMO = -0.0415834283065521
  mo_energy =
[-1.01456962e+02 -1.43459126e+01 -1.02366048e+01 -1.02365105e+01
 -1.02206338e+01 -1.02193898e+01 -1.02110970e+01 -1.02110741e+01
 -9.38861730e+00 -7.15080211e+00 -7.14253513e+00 -7.14252362e+00
 -9.68442390e-01 -8.22150540e-01 -7.86795484e-01 -7.73930986e-01
 -6.60619100e-01 -6.54002469e-01 -6.43373829e-01 -5.48921396e-01
 -5.01385988e-01 -4.90441735e-01 -4.55971949e-01 -4.35653439e-01
 -4.25429919e-01 -4.23858250e-01 -4.13027825e-01 -3.87828098e-01
 -3.47969923e-01 -3.05669248e-01 -2.84707312e-01 -2.54745144e-01
 -2.52038669e-01 -2.51660587e-01 -4.15834283e-02 -2.87035227e-02
  3.51243693e-02  8.42457520e-02  1.07862481e-01  1.18225267e-01
  1.30085248e-01  1.42737138e-01  1.50636540e-01  1.67831549e-01
  1.72534667e-01  2.03321339e-01  2.50303981e-01  2.77863104e-01
  3.08086604e-01  3.10635224e-01  4.25135172e-01  4.39155453e-01
  4.49195981e-01  4.91813357e-01  4.96231674e-01  4.97584543e-01
  5.21271526e-01  5.23956334e-01  5.42423249e-01  5.63906093e-01
  5.69524959e-01  5.79062872e-01  5.83361541e-01  5.91151027e-01
  5.94758227e-01  5.96172217e-01  6.38608465e-01  6.42529567e-01
  6.75742320e-01  6.97807029e-01  7.77508651e-01  8.03483696e-01
  8.15938857e-01  8.33107021e-01  8.35991557e-01  8.45533610e-01
  8.84334640e-01  8.87050773e-01  8.98877607e-01  9.11298515e-01
  9.22173855e-01  9.48132942e-01  9.53921211e-01  9.80485479e-01
  9.86866827e-01  9.96336015e-01  1.01380434e+00  1.04984328e+00
  1.07195767e+00  1.11569293e+00  1.15267401e+00  1.19742317e+00
  1.23137046e+00  1.30904223e+00  1.35741923e+00  1.38338658e+00
  1.44185528e+00  1.45478678e+00  1.46349901e+00  1.49059458e+00
  1.50786562e+00  1.53084019e+00  1.70191394e+00  1.70304294e+00
  1.70391612e+00  1.79164088e+00  1.83265934e+00  1.84153718e+00
  1.92324350e+00  1.94046403e+00  2.05960719e+00  2.11959310e+00
  2.12844193e+00  2.13484805e+00  2.15042322e+00  2.16123137e+00
  2.21046685e+00  2.23913387e+00  2.26261854e+00  2.28752202e+00
  2.31225782e+00  2.35255189e+00  2.53523121e+00  2.54358195e+00
  2.64992117e+00  2.68350972e+00  2.68957540e+00  2.71940584e+00
  2.76852377e+00  2.77182179e+00  3.03156384e+00  3.40513744e+00]
nelec by numeric integration = 68.00004881991802
    CPU time for vxc      5.98 sec, wall time      0.21 sec
E1 = -1779.0164865980066  Ecoul = 720.634563979785  Exc = -70.4974917036995
Extra cycle  E= -748.109555063401  delta_E= 8.62e-11  |g|= 2.47e-05  |ddm|= 5.25e-05
    CPU time for scf_cycle     88.02 sec, wall time      3.21 sec
    CPU time for SCF     88.02 sec, wall time      3.22 sec
converged SCF energy = -748.109555063401
Converting <class 'pyscf.dft.rks.RKS'> to RHF


******** <class 'pyscf.tdscf.rks.TDA'> for <class 'pyscf.dft.rks.RKS'> ********
nstates = 10 singlet
wfnsym = None
conv_tol = 1e-09
eigh lindep = 1e-12
eigh level_shift = 0
eigh max_space = 50
eigh max_cycle = 100
chkfile = /scratch/global/yangjunjie/tmpmvlm93dq
max_memory 256000 MB (current use 602 MB)


davidson 0 10  |r|= 0.251  e= [0.17348408 0.18200916 0.19088771 0.19107283 0.20339145 0.20411152
 0.21881295 0.28066851 0.36339433 0.37345776]  max|de|= 0.373  lindep=    1
Old state -> New state
    9     ->     8 
    8     ->     9 
davidson 1 20  |r|= 0.0604  e= [0.1702567  0.18019035 0.19077269 0.19078904 0.20320448 0.20406316
 0.21418488 0.25051094 0.30128584 0.30253807]  max|de|= -0.0722  lindep= 0.803
Old state -> New state
    3     ->     2 
    2     ->     3 
davidson 2 30  |r|= 0.0556  e= [0.17006977 0.18014342 0.19076183 0.19077225 0.20319844 0.20406206
 0.21400997 0.24999229 0.29214296 0.30021537]  max|de|= -0.00914  lindep= 0.789
Old state -> New state
    1     ->     9 
davidson 3 40  |r|= 0.0569  e= [0.1700681  0.18014234 0.19076073 0.19077223 0.20319773 0.20406199
 0.21400402 0.24977645 0.27845471 0.29805383]  max|de|= 0.118  lindep= 0.765
Old state -> New state
    9     ->     7 
    7     ->     8 
    8     ->     9 
root 3 converged  |r|= 5.08e-06  e= 0.1907722328281108  max|de|= -6.23e-10
davidson 4 50  |r|= 0.0779  e= [0.17006807 0.18014232 0.19076065 0.19077223 0.20319768 0.20406198
 0.21400383 0.24901017 0.24974716 0.27360456]  max|de|= -0.049  lindep= 0.75
Old state -> New state
    9     ->     8 
    8     ->     9 
root 0 converged  |r|= 1.34e-06  e= 0.17006807235521618  max|de|= -5.39e-10
root 1 converged  |r|= 2.02e-06  e= 0.18014232227346189  max|de|= -3.36e-10
davidson 5 59  |r|= 0.0382  e= [0.17006807 0.18014232 0.19076065 0.19077223 0.20319768 0.20406197
 0.21400381 0.24005297 0.24211031 0.24975008]  max|de|= -0.0315  lindep= 0.847
root 2 converged  |r|= 1.11e-06  e= 0.19076065084239244  max|de|= -6.77e-11
root 4 converged  |r|= 2.08e-06  e= 0.20319767945652395  max|de|= -1.89e-10
root 5 converged  |r|= 1.33e-06  e= 0.20406197388450759  max|de|= -6.02e-11
root 6 converged  |r|= 4.69e-06  e= 0.21400381351335598  max|de|= -9.62e-10
davidson 6 66  |r|= 0.00973  e= [0.17006807 0.18014232 0.19076065 0.19077223 0.20319768 0.20406197
 0.21400381 0.2393082  0.23977062 0.24974876]  max|de|= -0.00234  lindep= 0.814
davidson 7 69  |r|= 0.00212  e= [0.17006807 0.18014232 0.19076065 0.19077223 0.20319768 0.20406197
 0.21400381 0.23923774 0.23966313 0.24974869]  max|de|= -0.000107  lindep= 0.787
davidson 8 10  |r|= 0.00212  e= [0.17006807 0.18014232 0.19076065 0.19077223 0.20319768 0.20406197
 0.21400381 0.23923774 0.23966313 0.24974869]  max|de|= -3.61e-16  lindep= 0.999
davidson 9 13  |r|= 0.000711  e= [0.17006807 0.18014232 0.19076065 0.19077223 0.20319768 0.20406197
 0.21400381 0.23923362 0.23965797 0.24974869]  max|de|= -5.16e-06  lindep= 0.744
root 9 converged  |r|= 4.8e-06  e= 0.24974869019955892  max|de|= -4.27e-10
davidson 10 16  |r|= 0.000179  e= [0.17006807 0.18014232 0.19076065 0.19077223 0.20319768 0.20406197
 0.21400381 0.23923315 0.23965749 0.24974869]  max|de|= -4.8e-07  lindep= 0.794
davidson 11 18  |r|= 7.24e-05  e= [0.17006807 0.18014232 0.19076065 0.19077223 0.20319768 0.20406197
 0.21400381 0.2392331  0.23965746 0.24974869]  max|de|= -5.08e-08  lindep=  0.8
davidson 12 20  |r|= 2.77e-05  e= [0.17006807 0.18014232 0.19076065 0.19077223 0.20319768 0.20406197
 0.21400381 0.23923309 0.23965745 0.24974869]  max|de|= -7.57e-09  lindep= 0.803
root 8 converged  |r|= 8.36e-06  e= 0.2396574534783578  max|de|= -7.45e-10
davidson 13 22  |r|= 1.18e-05  e= [0.17006807 0.18014232 0.19076065 0.19077223 0.20319768 0.20406197
 0.21400381 0.23923309 0.23965745 0.24974869]  max|de|= -1.29e-09  lindep= 0.79
root 7 converged  |r|= 4.24e-06  e= 0.239233088257884  max|de|= -2.03e-10
converged 14 23  |r|= 8.36e-06  e= [0.17006807 0.18014232 0.19076065 0.19077223 0.20319768 0.20406197
 0.21400381 0.23923309 0.23965745 0.24974869]  max|de|= -2.03e-10
    CPU time for TDA    262.14 sec, wall time      9.55 sec
Excited State energies (eV)
[4.62778797 4.90192227 5.19086171 5.19117687 5.52929049 5.55280914
 5.82334038 6.50986391 6.52141148 6.79600802]
Converting <class 'pyscf.dft.rks.RKS'> to RHF


******** <class 'pyscf.tdscf.rks.TDDFT'> for <class 'pyscf.dft.rks.RKS'> ********
nstates = 10 singlet
wfnsym = None
conv_tol = 1e-09
eigh lindep = 1e-12
eigh level_shift = 0
eigh max_space = 50
eigh max_cycle = 100
chkfile = /scratch/global/yangjunjie/tmpmvlm93dq
max_memory 256000 MB (current use 631 MB)


davidson 0 10  |r|= 0.395  e= [0.17348408 0.18200916 0.19088771 0.19107283 0.20339145 0.20411152
 0.21881295 0.28066851 0.36339433 0.37345776]  max|de|= 0.373  lindep=    1
Old state -> New state
    8     ->     0 
    9     ->     1 
    0     ->     2 
    1     ->     3 
    3     ->     4 
    2     ->     5 
    7     ->     6 
    4     ->     7 
    5     ->     8 
    6     ->     9 
davidson 1 20  |r|= 0.761  e= [0.04348694 0.07115867 0.16609282 0.17976801 0.19039448 0.19076819
 0.19530379 0.20307391 0.2040565  0.21213018]  max|de|= -0.32  lindep= 0.124
Old state -> New state
    9     ->     0 
    2     ->     1 
    7     ->     6 
    8     ->     7 
    9     ->     8 
    6     ->     9 
davidson 2 30  |r|= 1.55  e= [0.05047278 0.113643   0.16682877 0.17984946 0.19063949 0.19076876
 0.2030861  0.20405804 0.21166338 0.24040316]  max|de|= -0.162  lindep= 0.0322
Old state -> New state
    2     ->     1 
    3     ->     2 
    8     ->     3 
davidson 3 40  |r|= 1.01  e= [0.13928823 0.16854536 0.17996854 0.18627088 0.19062865 0.19077041
 0.20306532 0.20406009 0.21202172 0.239794  ]  max|de|= 0.0888  lindep= 0.143
Old state -> New state
    1     ->     0 
    0     ->     1 
    0     ->     2 
    1     ->     3 
    2     ->     4 
    4     ->     5 
    5     ->     6 
    6     ->     7 
    7     ->     8 
    8     ->     9 
davidson 4 50  |r|= 1.46  e= [0.00702904 0.07082351 0.1194275  0.168553   0.17995885 0.19066959
 0.19077018 0.20309828 0.20405845 0.21165682]  max|de|= -0.162  lindep= 0.141
Old state -> New state
    1     ->     0 
    3     ->     1 
    4     ->     2 
    5     ->     3 
    6     ->     4 
    4     ->     5 
    7     ->     6 
    8     ->     7 
    9     ->     8 
    2     ->     9 
davidson 5 60  |r|= 1.17  e= [0.08562699 0.16855042 0.17995625 0.19067464 0.19076784 0.19330354
 0.2030956  0.20405958 0.21168474 0.24069432]  max|de|= 0.121  lindep= 0.17
Old state -> New state
    1     ->     2 
    2     ->     3 
    3     ->     4 
    4     ->     5 
    3     ->     6 
    6     ->     7 
    7     ->     8 
    8     ->     9 
davidson 6 70  |r|=    1  e= [0.08348882 0.13974642 0.16853852 0.17995949 0.19062437 0.1907701
 0.19229437 0.2030977  0.20405962 0.21170743]  max|de|= -0.0288  lindep= 0.0446
Old state -> New state
    1     ->     0 
    0     ->     1 
    0     ->     2 
    2     ->     3 
    3     ->     4 
    3     ->     5 
    4     ->     6 
    5     ->     7 
    7     ->     8 
    8     ->     9 
davidson 7 80  |r|= 1.18  e= [0.00827527 0.03215198 0.08100254 0.16853926 0.17561507 0.17995964
 0.19067612 0.19077011 0.20309709 0.20405963]  max|de|= -0.131  lindep= 0.0883
root 7 converged  |r|= 1.65e-05  e= 0.19077010594747756  max|de|= -4.16e-16
davidson 8 10  |r|= 1.18  e= [0.00827527 0.03215198 0.08100254 0.16853926 0.17561507 0.17995964
 0.19067612 0.19077011 0.20309709 0.20405963]  max|de|= 4.44e-16  lindep= 0.187
Old state -> New state
    3     ->     1 
    5     ->     2 
    6     ->     3 
    7     ->     4 
    4     ->     5 
    8     ->     7 
    9     ->     8 
    2     ->     9 
davidson 9 19  |r|= 1.36  e= [0.04634014 0.16854062 0.17995974 0.19062016 0.19077009 0.19113016
 0.19122787 0.20309836 0.20405951 0.24997873]  max|de|= 0.169  lindep= 0.11
Old state -> New state
    1     ->     3 
    3     ->     4 
    4     ->     5 
    7     ->     6 
    8     ->     7 
    1     ->     8 
davidson 10 29  |r|= 1.27  e= [0.0500506  0.16854056 0.17995964 0.18875702 0.19067648 0.19077012
 0.20309811 0.20405964 0.27716965 0.28703128]  max|de|= 0.109  lindep= 0.0226
Old state -> New state
    9     ->     1 
    1     ->     2 
    2     ->     3 
davidson 11 39  |r|= 1.26  e= [0.10621778 0.11438023 0.16854107 0.17995969 0.19067641 0.19077011
 0.20309791 0.2040597  0.27630282 0.28625967]  max|de|= -0.173  lindep= 0.111
Old state -> New state
    0     ->     1 
    1     ->     2 
    2     ->     3 
    3     ->     4 
    4     ->     5 
    5     ->     6 
    3     ->     7 
    6     ->     8 
    7     ->     9 
davidson 12 49  |r|=  1.3  e= [0.09289874 0.13787952 0.14817104 0.16854101 0.17995958 0.19067564
 0.19077011 0.19402595 0.20309728 0.2040597 ]  max|de|= 0.0338  lindep= 0.0486
Old state -> New state
    0     ->     1 
    8     ->     7 
    9     ->     8 
    2     ->     9 
davidson 13 59  |r|= 1.17  e= [0.03148969 0.12598459 0.16430123 0.16854032 0.17995969 0.19067615
 0.19077011 0.20309749 0.2040597  0.23322457]  max|de|= 0.0851  lindep= 0.0744
Old state -> New state
    9     ->     1 
    0     ->     2 
    9     ->     7 
    7     ->     8 
    8     ->     9 
davidson 14 69  |r|= 1.47  e= [0.02022914 0.05726901 0.09055781 0.16854067 0.17995962 0.19067546
 0.19077011 0.20136206 0.20309637 0.2040597 ]  max|de|= -0.176  lindep= 0.0313
Old state -> New state
    1     ->     0 
    0     ->     1 
    7     ->     2 
    4     ->     3 
    3     ->     4 
    4     ->     5 
    4     ->     6 
    5     ->     7 
    6     ->     8 
    8     ->     9 
davidson 15 79  |r|= 1.33  e= [0.00471975 0.00764041 0.08098997 0.13715342 0.16854036 0.17995949
 0.18980088 0.19067573 0.19077005 0.20309748]  max|de|= -0.12  lindep= 0.0644
root 4 converged  |r|= 2.98e-05  e= 0.1685403648165539  max|de|= -9.11e-13
root 5 converged  |r|= 3.14e-05  e= 0.17995948765052833  max|de|= -3.53e-12
root 7 converged  |r|= 2.09e-05  e= 0.19067573112905709  max|de|= 3.05e-16
root 9 converged  |r|= 2.92e-05  e= 0.20309747931364058  max|de|= 4.44e-16
davidson 16 10  |r|= 1.33  e= [0.00471975 0.00764041 0.08098997 0.13715342 0.16854036 0.17995949
 0.18980088 0.19067573 0.19077005 0.20309748]  max|de|= 2.1e-11  lindep= 0.277
Old state -> New state
    2     ->     1 
    4     ->     2 
    5     ->     3 
    7     ->     4 
    8     ->     5 
    9     ->     6 
    3     ->     7 
    6     ->     8 
davidson 17 16  |r|=  1.4  e= [0.03928923 0.11255966 0.16854051 0.17995961 0.19067574 0.19077011
 0.20309746 0.35768555 0.38895336]  max|de|= 0.221  lindep= 0.105
Old state -> New state
    7     ->     9 
root 5 converged  |r|= 7.44e-06  e= 0.19077011116320935  max|de|= 8.45e-10
davidson 18 25  |r|= 1.24  e= [0.01982415 0.08650763 0.16854036 0.17995959 0.19067599 0.19077011
 0.20309742 0.25267435 0.32065911 0.38489199]  max|de|= -0.105  lindep= 0.247
Old state -> New state
    0     ->     1 
    1     ->     2 
    2     ->     3 
    3     ->     4 
    4     ->     5 
    5     ->     6 
    6     ->     7 
    1     ->     8 
    1     ->     9 
davidson 19 34  |r|=  1.2  e= [0.00941298 0.03184418 0.07422572 0.16854043 0.17995961 0.19067577
 0.19077011 0.20309748 0.23371316 0.26039054]  max|de|= 0.174  lindep= 0.23
Old state -> New state
    3     ->     1 
    3     ->     2 
    4     ->     3 
    5     ->     4 
    6     ->     5 
    5     ->     6 
    9     ->     8 
    2     ->     9 
davidson 20 43  |r|= 1.29  e= [0.00544477 0.15281945 0.16854036 0.17995961 0.19067569 0.19077011
 0.20285035 0.2030974  0.22080075 0.27844052]  max|de|= 0.204  lindep= 0.04
Old state -> New state
    7     ->     6 
    8     ->     7 
    8     ->     9 
davidson 21 52  |r|= 1.24  e= [0.01769259 0.10617888 0.16854042 0.17995961 0.1906758  0.19077011
 0.20309753 0.2224878  0.24339257 0.27231226]  max|de|= 0.0515  lindep= 0.066
Old state -> New state
    7     ->     0 
    2     ->     1 
    3     ->     2 
    4     ->     3 
    9     ->     8 
    1     ->     9 
davidson 22 60  |r|= 1.09  e= [0.11932447 0.16854043 0.17995961 0.18964749 0.19067589 0.19077011
 0.20309738 0.22919442 0.27246125 0.30735827]  max|de|= 0.201  lindep= 0.152
Old state -> New state
    3     ->     0 
    0     ->     1 
    0     ->     2 
    1     ->     3 
    2     ->     4 
    4     ->     5 
    5     ->     6 
    6     ->     7 
    7     ->     8 
    8     ->     9 
root 4 converged  |r|= 2.65e-07  e= 0.17995961271450267  max|de|= -7.11e-10
davidson 23 68  |r|= 1.14  e= [0.0128534  0.04623514 0.13754189 0.16854044 0.17995961 0.1906758
 0.19077011 0.20309747 0.2126555  0.21765129]  max|de|= -0.177  lindep= 0.114
Old state -> New state
    3     ->     1 
    4     ->     2 
    5     ->     3 
    6     ->     4 
    7     ->     5 
    8     ->     6 
    1     ->     7 
    2     ->     8 
root 1 converged  |r|= 3.28e-07  e= 0.1685404414722299  max|de|= 7.04e-10
root 3 converged  |r|= 1.88e-06  e= 0.19067580061656586  max|de|= 7.79e-10
davidson 24 75  |r|= 1.21  e= [0.07920781 0.16854044 0.17995961 0.1906758  0.19077011 0.20309744
 0.2100784  0.23049509 0.24769872 0.25050215]  max|de|= 0.184  lindep= 0.126
Old state -> New state
    6     ->     7 
    9     ->     8 
    7     ->     9 
davidson 25 81  |r|=  1.1  e= [0.01456086 0.16854044 0.17995961 0.1906758  0.19077011 0.20309746
 0.20845058 0.22311715 0.23469429 0.24221974]  max|de|= -0.0646  lindep= 0.101
root 1 converged  |r|= 2.49e-07  e= 0.1685404375234733  max|de|= -8.05e-16
root 5 converged  |r|= 1.32e-05  e= 0.2030974611367093  max|de|=    0
davidson 26 10  |r|=  1.1  e= [0.01456086 0.16854044 0.17995961 0.1906758  0.19077011 0.20309746
 0.20845058 0.22311715 0.23469429 0.24221974]  max|de|= -2.91e-14  lindep= 0.337
Old state -> New state
    1     ->     2 
    2     ->     3 
    3     ->     4 
    4     ->     5 
    5     ->     6 
    6     ->     7 
    9     ->     8 
davidson 27 15  |r|= 1.46  e= [0.03645383 0.15871429 0.16854045 0.17995961 0.1906758  0.19077011
 0.20309745 0.21117628 0.24190086 0.24764534]  max|de|= 0.0219  lindep= 0.236
Old state -> New state
    0     ->     1 
root 4 converged  |r|= 4.2e-07  e= 0.19067579865847947  max|de|= 1.02e-10
davidson 28 21  |r|= 1.24  e= [0.02221256 0.11211513 0.16854044 0.17995961 0.1906758  0.19077011
 0.20309741 0.2051724  0.23592489 0.24496956]  max|de|= 0.0757  lindep= 0.214
Old state -> New state
    2     ->     1 
    3     ->     2 
    4     ->     3 
    5     ->     4 
    6     ->     5 
    7     ->     6 
    8     ->     7 
    8     ->     9 
root 1 converged  |r|= 1.59e-07  e= 0.16854043924940573  max|de|= -1.44e-10
davidson 29 27  |r|= 1.01  e= [0.02230586 0.16854044 0.17995961 0.1906758  0.19077011 0.20309745
 0.21151491 0.22863214 0.23840943 0.24049678]  max|de|= -0.00729  lindep= 0.106
Old state -> New state
    9     ->     1 
    1     ->     2 
    9     ->     3 
    2     ->     4 
    3     ->     5 
    4     ->     6 
    5     ->     7 
    6     ->     8 
root 7 converged  |r|= 1.09e-06  e= 0.20309744578286967  max|de|= -5.22e-10
davidson 30 33  |r|= 1.22  e= [0.0285604  0.07981984 0.16854043 0.17751724 0.17995961 0.1906758
 0.19077011 0.20309745 0.21166958 0.23777544]  max|de|= -0.161  lindep= 0.0857
Old state -> New state
    2     ->     1 
    4     ->     2 
    5     ->     3 
    6     ->     4 
    7     ->     5 
    8     ->     6 
    9     ->     7 
    9     ->     8 
davidson 31 39  |r|= 1.12  e= [0.00987727 0.16854044 0.17995961 0.1906758  0.19077011 0.20309745
 0.21160966 0.22926328 0.26362829 0.28123595]  max|de|= 0.0435  lindep= 0.135
Old state -> New state
    1     ->     2 
    2     ->     3 
    3     ->     4 
    4     ->     5 
    3     ->     6 
    5     ->     7 
    6     ->     8 
    8     ->     9 
davidson 32 45  |r|= 0.944  e= [0.00925679 0.16854043 0.17069883 0.17995961 0.1906758  0.19077011
 0.19168122 0.20309744 0.21207882 0.22672021]  max|de|= -0.0369  lindep= 0.0491
Old state -> New state
    8     ->     1 
    1     ->     2 
    1     ->     3 
    3     ->     4 
    4     ->     5 
    4     ->     6 
    5     ->     7 
    7     ->     8 
    8     ->     9 
davidson 33 53  |r|= 1.08  e= [0.02845802 0.10209665 0.16631996 0.16854044 0.17995961 0.19046815
 0.19067582 0.19077011 0.20309745 0.21188082]  max|de|= -0.11  lindep= 0.114
Old state -> New state
    3     ->     1 
    3     ->     2 
    4     ->     3 
    6     ->     4 
    7     ->     5 
    8     ->     6 
    8     ->     7 
    9     ->     8 
    0     ->     9 
root 2 converged  |r|= 6.53e-08  e= 0.16854043876742814  max|de|= 3.89e-10
davidson 34 61  |r|= 1.13  e= [0.00584172 0.12451433 0.16854044 0.17995961 0.1906758  0.19077011
 0.20297089 0.20309744 0.21157385 0.22951512]  max|de|= 0.201  lindep= 0.0669
Old state -> New state
    2     ->     1 
    3     ->     2 
    4     ->     3 
    5     ->     4 
    7     ->     5 
    9     ->     6 
    8     ->     7 
    1     ->     8 
root 3 converged  |r|= 1.86e-07  e= 0.19067579872881638  max|de|= 1.37e-10
root 5 converged  |r|= 5.39e-07  e= 0.2030974436130973  max|de|= -7.69e-10
davidson 35 66  |r|= 1.11  e= [0.05554153 0.16854044 0.17995961 0.1906758  0.19077011 0.20309744
 0.20645908 0.2116482  0.23604373 0.23808086]  max|de|= 0.112  lindep= 0.108
Old state -> New state
    6     ->     5 
    5     ->     6 
    5     ->     7 
    7     ->     8 
    6     ->     9 
davidson 36 71  |r|= 0.904  e= [0.0381771  0.16854044 0.17995961 0.1906758  0.19077011 0.20041203
 0.20309744 0.20458707 0.21195804 0.22718835]  max|de|= 0.0207  lindep= 0.0616
Old state -> New state
    1     ->     5 
    5     ->     7 
    5     ->     9 
davidson 37 77  |r|= 1.07  e= [0.09323761 0.16854044 0.17995961 0.1906758  0.19077011 0.19208903
 0.20309744 0.20705402 0.21163915 0.23590107]  max|de|= 0.0551  lindep= 0.117
root 3 converged  |r|= 6.52e-06  e= 0.19067580081290902  max|de|= 5.17e-14
root 6 converged  |r|= 5.96e-07  e= 0.20309744357103335  max|de|= -1.38e-13
davidson 38 10  |r|= 1.07  e= [0.09323761 0.16854044 0.17995961 0.1906758  0.19077011 0.19208903
 0.20309744 0.20705402 0.21163915 0.23590107]  max|de|= -3.02e-12  lindep= 0.306
Old state -> New state
    0     ->     5 
davidson 39 15  |r|= 1.12  e= [0.0419209  0.16854044 0.17995961 0.1906758  0.19077011 0.19546415
 0.20309744 0.20480215 0.21188656]  max|de|= 0.102  lindep= 0.22
Old state -> New state
    0     ->     1 
    0     ->     2 
    1     ->     3 
    2     ->     4 
    3     ->     5 
    4     ->     6 
    6     ->     7 
    7     ->     8 
    8     ->     9 
root 5 converged  |r|= 4.36e-08  e= 0.190675798735559  max|de|= 1.54e-12
davidson 40 19  |r|= 1.31  e= [0.02503657 0.02967006 0.11437353 0.16854044 0.17995961 0.1906758
 0.19077011 0.20309744 0.20438437 0.21166422]  max|de|= 0.0725  lindep= 0.211
Old state -> New state
    1     ->     0 
    3     ->     1 
    9     ->     2 
root 7 converged  |r|= 5.48e-07  e= 0.2030974432097529  max|de|= -5.48e-10
davidson 41 24  |r|= 1.15  e= [0.02361147 0.05734611 0.08877681 0.16854044 0.17995961 0.1906758
 0.19077011 0.20309744 0.20398492 0.21186159]  max|de|= -0.123  lindep= 0.211
Old state -> New state
    2     ->     1 
    3     ->     2 
    4     ->     3 
    9     ->     4 
davidson 42 29  |r|= 1.22  e= [0.01813022 0.08579088 0.16854044 0.17995961 0.18584855 0.1906758
 0.19077011 0.20309744 0.20414835 0.21168186]  max|de|= -0.026  lindep= 0.172
Old state -> New state
    2     ->     1 
    3     ->     2 
    9     ->     3 
    5     ->     4 
    6     ->     5 
    7     ->     6 
    8     ->     7 
    9     ->     8 
    4     ->     9 
davidson 43 34  |r|= 1.34  e= [0.03845589 0.16854044 0.17995961 0.18947104 0.1906758  0.19077011
 0.20309744 0.20426165 0.21154744 0.23915398]  max|de|= 0.0533  lindep= 0.222
Old state -> New state
    8     ->     1 
    1     ->     2 
    2     ->     3 
davidson 44 40  |r|= 1.38  e= [0.00197561 0.08097071 0.16854044 0.17995961 0.1906758  0.19077011
 0.20309744 0.2040687  0.21169269 0.23169405]  max|de|= -0.131  lindep= 0.225
Old state -> New state
    2     ->     0 
    3     ->     1 
    4     ->     2 
    5     ->     3 
    6     ->     4 
    7     ->     5 
    8     ->     6 
    9     ->     7 
    1     ->     8 
    0     ->     9 
root 2 converged  |r|= 1.04e-08  e= 0.19067579879925886  max|de|= 3.92e-11
davidson 45 45  |r|= 0.865  e= [0.16854044 0.17995961 0.1906758  0.19077011 0.20309744 0.20406589
 0.2117068  0.2378063  0.26396065 0.3015049 ]  max|de|=  0.3  lindep= 0.233
Old state -> New state
    7     ->     0 
    0     ->     1 
    1     ->     2 
    2     ->     3 
    3     ->     4 
    4     ->     5 
    5     ->     6 
    6     ->     7 
    7     ->     8 
    8     ->     9 
davidson 46 50  |r|= 1.29  e= [0.13283095 0.16854044 0.17995961 0.1906758  0.19077011 0.20309744
 0.2040611  0.21170097 0.23772737 0.24965876]  max|de|= -0.105  lindep= 0.24
Old state -> New state
    9     ->     5 
    5     ->     6 
    6     ->     7 
    7     ->     8 
    8     ->     9 
davidson 47 55  |r|= 1.17  e= [0.04864438 0.16854044 0.17995961 0.1906758  0.19077011 0.19790503
 0.20309744 0.20406225 0.21169988 0.23781908]  max|de|= -0.0842  lindep= 0.158
Old state -> New state
    0     ->     1 
    1     ->     2 
    2     ->     3 
    3     ->     4 
    4     ->     5 
davidson 48 60  |r|= 1.12  e= [0.04812626 0.06333455 0.16854044 0.17995961 0.1906758  0.19077011
 0.20309744 0.2040601  0.21170037 0.2377927 ]  max|de|= 0.0147  lindep= 0.0397
Old state -> New state
    6     ->     7 
    7     ->     8 
    8     ->     9 
davidson 49 65  |r|= 1.25  e= [0.01163833 0.11477117 0.16854044 0.17995961 0.1906758  0.19077011
 0.20144758 0.20309744 0.20405915 0.21170165]  max|de|= 0.0514  lindep= 0.0639
Old state -> New state
    2     ->     0 
    2     ->     1 
    3     ->     2 
    4     ->     3 
    5     ->     4 
    7     ->     5 
    8     ->     6 
    9     ->     7 
    6     ->     8 
    6     ->     9 
davidson 50 70  |r|= 1.05  e= [0.14850375 0.16854044 0.17995961 0.1906758  0.19077011 0.20309744
 0.20406    0.21170095 0.21978467 0.23773815]  max|de|= 0.0363  lindep= 0.142
Old state -> New state
    9     ->     8 
davidson 51 75  |r|= 0.983  e= [0.07002813 0.16854044 0.17995961 0.1906758  0.19077011 0.20309744
 0.20405969 0.21170073 0.23677208 0.23697571]  max|de|= -0.0785  lindep= 0.0774
Old state -> New state
    0     ->     1 
    1     ->     2 
    2     ->     3 
    3     ->     4 
    4     ->     5 
    0     ->     6 
    5     ->     7 
    6     ->     8 
    7     ->     9 
davidson 52 80  |r|= 1.13  e= [0.02786759 0.0662497  0.16854044 0.17995961 0.1906758  0.19077011
 0.19339905 0.20309744 0.2040602  0.21169275]  max|de|= 0.123  lindep= 0.0976
davidson 53 10  |r|= 1.13  e= [0.02786759 0.0662497  0.16854044 0.17995961 0.1906758  0.19077011
 0.19339905 0.20309744 0.2040602  0.21169275]  max|de|= 2.16e-13  lindep= 0.244
Old state -> New state
    0     ->     1 
    1     ->     2 
    2     ->     3 
    3     ->     4 
    4     ->     5 
    4     ->     6 
    5     ->     7 
    7     ->     8 
    8     ->     9 
davidson 54 15  |r|= 1.33  e= [0.02065196 0.06409813 0.13340664 0.16854044 0.17995961 0.18757865
 0.1906758  0.19077011 0.20309744 0.20405982]  max|de|= 0.0672  lindep= 0.17
Old state -> New state
    5     ->     2 
    6     ->     5 
    7     ->     6 
    8     ->     7 
    9     ->     8 
    5     ->     9 
davidson 55 20  |r|= 1.34  e= [0.01870372 0.09020911 0.12629456 0.16854044 0.17995961 0.1906758
 0.19077011 0.20309744 0.2040597  0.21169861]  max|de|= -0.0613  lindep= 0.0189
Old state -> New state
    0     ->     1 
    3     ->     2 
davidson 56 25  |r|= 1.36  e= [0.01853989 0.02006956 0.12803676 0.16854044 0.17995961 0.1906758
 0.19077011 0.20309744 0.20405975 0.21170177]  max|de|= -0.0405  lindep= 0.0142
Old state -> New state
    2     ->     1 
    9     ->     2 
davidson 57 30  |r|= 1.48  e= [0.00987314 0.11563363 0.14137669 0.16854044 0.17995961 0.1906758
 0.19077011 0.20309744 0.20405976 0.21170343]  max|de|= -0.0703  lindep= 0.0572
Old state -> New state
    3     ->     1 
    4     ->     2 
    5     ->     3 
    6     ->     4 
    7     ->     5 
    8     ->     6 
    9     ->     7 
    2     ->     8 
    2     ->     9 
davidson 58 35  |r|= 1.29  e= [0.09218056 0.16854044 0.17995961 0.1906758  0.19077011 0.20309744
 0.20405963 0.21170161 0.24134443 0.33163476]  max|de|= 0.19  lindep= 0.183
Old state -> New state
    0     ->     1 
    1     ->     2 
    1     ->     3 
    2     ->     4 
    3     ->     5 
    4     ->     6 
    5     ->     7 
    6     ->     8 
    7     ->     9 
davidson 59 40  |r|=  1.2  e= [0.08827776 0.12355814 0.16854044 0.17358713 0.17995961 0.1906758
 0.19077011 0.20309744 0.20405957 0.21170119]  max|de|= 0.0314  lindep= 0.16
Old state -> New state
    1     ->     0 
    0     ->     1 
    0     ->     2 
    2     ->     3 
davidson 60 45  |r|= 1.52  e= [0.04420554 0.063561   0.09347794 0.16854044 0.17995961 0.1906758
 0.19077011 0.20309744 0.20405968 0.21170015]  max|de|= -0.0794  lindep= 0.115
Old state -> New state
    1     ->     0 
    3     ->     2 
    4     ->     3 
    3     ->     4 
davidson 61 50  |r|=  1.3  e= [0.05459892 0.06457234 0.16854044 0.17995961 0.18848669 0.1906758
 0.19077011 0.20309744 0.20405974 0.21170049]  max|de|= 0.0199  lindep= 0.0243
Old state -> New state
    2     ->     1 
    3     ->     2 
    5     ->     3 
    6     ->     4 
    7     ->     5 
    8     ->     6 
    9     ->     7 
    4     ->     8 
    1     ->     9 
davidson 62 55  |r|= 1.05  e= [0.05329675 0.16854044 0.17995961 0.1906758  0.19077011 0.20309744
 0.2040597  0.21170037 0.24809375 0.27678141]  max|de|= 0.212  lindep= 0.0202
Old state -> New state
    8     ->     0 
davidson 63 60  |r|= 0.866  e= [0.13428996 0.16854044 0.17995961 0.1906758  0.19077011 0.20309744
 0.2040597  0.21170033 0.26247859 0.27996246]  max|de|= -0.114  lindep= 0.166
Old state -> New state
    8     ->     0 
    0     ->     1 
    1     ->     2 
    2     ->     3 
    3     ->     4 
    4     ->     5 
    5     ->     6 
    6     ->     7 
    7     ->     8 
    8     ->     9 
davidson 64 65  |r|= 1.05  e= [0.03600327 0.1321996  0.16854044 0.17995961 0.1906758  0.19077011
 0.20309744 0.2040597  0.21170043 0.23905853]  max|de|= -0.226  lindep= 0.114
Old state -> New state
    0     ->     1 
    8     ->     9 
davidson 65 70  |r|= 1.08  e= [0.03693844 0.08255484 0.16854044 0.17995961 0.1906758  0.19077011
 0.20309744 0.2040597  0.21170031 0.23856178]  max|de|= 0.0466  lindep= 0.0101
Old state -> New state
    2     ->     1 
    3     ->     2 
    4     ->     3 
    5     ->     4 
    0     ->     5 
root 7 converged  |r|= 1.84e-05  e= 0.2040597009436519  max|de|= -4.75e-10
davidson 66 75  |r|= 1.27  e= [0.0063065  0.16854044 0.17995961 0.1906758  0.19077011 0.19229344
 0.20309744 0.2040597  0.21170029 0.24043286]  max|de|= 0.155  lindep= 0.123
Old state -> New state
    1     ->     3 
    3     ->     4 
    4     ->     5 
davidson 67 79  |r|= 1.05  e= [0.03607753 0.16854044 0.17995961 0.18198035 0.1906758  0.19077011
 0.20309744 0.20405969 0.21170034 0.24107845]  max|de|= 0.0298  lindep= 0.0919
root 7 converged  |r|= 1.64e-05  e= 0.2040596926166702  max|de|= 5.6e-14
root 8 converged  |r|= 8.54e-06  e= 0.21170033988866177  max|de|= 3.73e-13
davidson 68 10  |r|= 1.05  e= [0.03607753 0.16854044 0.17995961 0.18198035 0.1906758  0.19077011
 0.20309744 0.20405969 0.21170034 0.24107845]  max|de|= -2.86e-12  lindep= 0.244
Old state -> New state
    9     ->     0 
    0     ->     1 
    1     ->     2 
    2     ->     3 
davidson 69 13  |r|= 1.52  e= [0.03421564 0.03599704 0.16854044 0.17995961 0.1906758  0.19077011
 0.20309744 0.2040597  0.21170035 0.24042091]  max|de|= -0.207  lindep= 0.263
Old state -> New state
    1     ->     0 
    0     ->     1 
    8     ->     2 
    9     ->     3 
    2     ->     4 
    3     ->     5 
    4     ->     6 
    5     ->     7 
    6     ->     8 
    7     ->     9 
root 9 converged  |r|= 5.8e-06  e= 0.20405970106203405  max|de|= -5.52e-11
davidson 70 18  |r|= 1.34  e= [0.01828865 0.03157482 0.08467144 0.10876437 0.16854044 0.17995961
 0.1906758  0.19077011 0.20309744 0.2040597 ]  max|de|= -0.132  lindep= 0.211
Old state -> New state
    0     ->     1 
    1     ->     2 
    4     ->     3 
    5     ->     4 
    6     ->     5 
    7     ->     6 
    8     ->     7 
    9     ->     8 
    2     ->     9 
davidson 71 22  |r|=  1.3  e= [0.01083029 0.03619703 0.11219526 0.16854044 0.17995961 0.1906758
 0.19077011 0.20309744 0.2040597  0.21170032]  max|de|= 0.127  lindep= 0.0935
Old state -> New state
    1     ->     0 
    3     ->     1 
    3     ->     2 
    4     ->     3 
    5     ->     4 
    6     ->     5 
    7     ->     6 
    8     ->     7 
    9     ->     8 
    2     ->     9 
davidson 72 27  |r|= 1.21  e= [0.07448789 0.15140986 0.16854044 0.17995961 0.1906758  0.19077011
 0.20309744 0.2040597  0.21170037 0.24074714]  max|de|= 0.129  lindep= 0.236
Old state -> New state
    2     ->     0 
    3     ->     1 
    4     ->     2 
    4     ->     3 
    5     ->     4 
    6     ->     5 
    7     ->     6 
    8     ->     7 
    9     ->     8 
    1     ->     9 
root 6 converged  |r|= 6.72e-06  e= 0.20405970134290974  max|de|= -5.74e-10
davidson 73 32  |r|= 1.18  e= [0.16854044 0.17995961 0.18858895 0.1906758  0.19077011 0.20309744
 0.2040597  0.21170034 0.24067687 0.28913905]  max|de|= 0.138  lindep= 0.251
Old state -> New state
    9     ->     0 
    0     ->     1 
    1     ->     2 
    2     ->     3 
    3     ->     4 
    4     ->     5 
    5     ->     6 
    6     ->     7 
    7     ->     8 
    8     ->     9 
davidson 74 36  |r|= 1.15  e= [0.05362718 0.16854044 0.17995961 0.18219281 0.1906758  0.19077011
 0.20309744 0.2040597  0.21170033 0.22245373]  max|de|= -0.236  lindep= 0.0987
Old state -> New state
    4     ->     3 
    5     ->     4 
    6     ->     5 
    7     ->     6 
    8     ->     7 
    9     ->     8 
root 7 converged  |r|= 1.51e-06  e= 0.21170032832718566  max|de|= -3.92e-10
davidson 75 40  |r|= 1.21  e= [0.06008688 0.16854044 0.17995961 0.1906758  0.19077011 0.20309744
 0.2040597  0.21170033 0.23945813 0.24559593]  max|de|= 0.0231  lindep= 0.0763
Old state -> New state
    1     ->     0 
    2     ->     1 
    3     ->     2 
    4     ->     3 
    5     ->     4 
    6     ->     5 
    7     ->     6 
davidson 76 43  |r|= 0.56  e= [0.16854044 0.17995961 0.1906758  0.19077011 0.20309744 0.2040597
 0.21170041 0.22229187 0.2406551  0.2562181 ]  max|de|= 0.0106  lindep= 0.187
Old state -> New state
    4     ->     5 
    5     ->     6 
    6     ->     7 
    6     ->     8 
davidson 77 47  |r|= 0.582  e= [0.16854044 0.17995961 0.1906758  0.19077011 0.201269   0.20309744
 0.2040597  0.21170038 0.22067373 0.23973133]  max|de|= -0.0165  lindep= 0.153
Old state -> New state
    4     ->     0 
    0     ->     1 
    4     ->     2 
    1     ->     3 
    2     ->     4 
    3     ->     5 
    5     ->     6 
    6     ->     7 
    7     ->     8 
davidson 78 52  |r|=  1.1  e= [0.02864088 0.16854044 0.17356412 0.17995961 0.1906758  0.19077011
 0.20309744 0.2040597  0.21170034 0.23424813]  max|de|= -0.173  lindep= 0.115
Old state -> New state
    3     ->     2 
    4     ->     3 
    5     ->     4 
    6     ->     5 
    7     ->     6 
    8     ->     7 
    9     ->     8 
root 6 converged  |r|= 7.78e-08  e= 0.20405970157750034  max|de|= 2.86e-10
davidson 79 56  |r|= 1.07  e= [0.02844636 0.16854044 0.17995961 0.1906758  0.19077011 0.20309744
 0.2040597  0.21170035 0.24133031 0.25353756]  max|de|= 0.0193  lindep= 0.00936
Old state -> New state
    1     ->     2 
    2     ->     3 
    3     ->     4 
    4     ->     5 
    5     ->     6 
    6     ->     7 
    7     ->     8 
root 8 converged  |r|= 9.65e-08  e= 0.21170034773931368  max|de|= -1.95e-10
davidson 80 59  |r|= 1.09  e= [0.02666109 0.15328554 0.16854044 0.17995961 0.1906758  0.19077011
 0.20309744 0.2040597  0.21170035 0.23869068]  max|de|= -0.0153  lindep= 0.0164
Old state -> New state
    0     ->     1 
davidson 81 62  |r|= 1.24  e= [0.01848011 0.09020285 0.16854044 0.17995961 0.1906758  0.19077011
 0.20309744 0.2040597  0.21170035 0.23666251]  max|de|= 0.0635  lindep= 0.0422
Old state -> New state
    2     ->     1 
    3     ->     2 
    4     ->     3 
    5     ->     4 
    6     ->     5 
    7     ->     6 
    8     ->     7 
    9     ->     8 
davidson 82 65  |r|= 1.22  e= [0.10461816 0.16854044 0.17995961 0.1906758  0.19077011 0.20309744
 0.2040597  0.21170035 0.23792788 0.23907377]  max|de|= 0.0861  lindep= 0.127
Old state -> New state
    8     ->     9 
davidson 83 68  |r|= 1.18  e= [0.10553828 0.16854044 0.17995961 0.1906758  0.19077011 0.20309744
 0.2040597  0.21170035 0.23753003 0.23818029]  max|de|= 0.00092  lindep= 0.00854
Old state -> New state
    0     ->     1 
    1     ->     2 
    2     ->     3 
    3     ->     4 
    4     ->     5 
    7     ->     6 
    5     ->     7 
    6     ->     8 
    7     ->     9 
root 9 converged  |r|= 1.57e-07  e= 0.2117003468163516  max|de|= 2.76e-10
davidson 84 71  |r|= 1.25  e= [0.1028121  0.13644695 0.16854044 0.17995961 0.1906758  0.19077011
 0.19826157 0.20309744 0.2040597  0.21170035]  max|de|= 0.0309  lindep= 0.0443
Old state -> New state
    2     ->     1 
    3     ->     2 
    4     ->     3 
    5     ->     4 
    7     ->     5 
    8     ->     6 
    9     ->     7 
    9     ->     8 
    0     ->     9 
davidson 85 74  |r|= 1.09  e= [0.10200713 0.16854044 0.17995961 0.1906758  0.19077011 0.20309744
 0.2040597  0.21170035 0.21630627 0.23717077]  max|de|= 0.134  lindep= 0.00905
Old state -> New state
    8     ->     0 
    0     ->     1 
    1     ->     2 
    2     ->     3 
    3     ->     4 
    4     ->     5 
    5     ->     6 
    6     ->     7 
    7     ->     8 
davidson 86 77  |r|= 1.12  e= [0.00188041 0.07868798 0.16854044 0.17995961 0.1906758  0.19077011
 0.20309744 0.2040597  0.21170035 0.2376502 ]  max|de|= -0.214  lindep= 0.111
root 8 converged  |r|= 3.04e-07  e= 0.21170034692567716  max|de|= 1.47e-10
davidson 87 10  |r|= 1.12  e= [0.00188041 0.07868798 0.16854044 0.17995961 0.1906758  0.19077011
 0.20309744 0.2040597  0.21170035 0.2376502 ]  max|de|= 5.2e-10  lindep= 0.332
Old state -> New state
    2     ->     1 
    3     ->     2 
    4     ->     3 
    5     ->     4 
    6     ->     5 
    7     ->     6 
    8     ->     7 
    9     ->     8 
    1     ->     9 
davidson 88 13  |r|= 1.46  e= [0.04321611 0.16854044 0.17995961 0.1906758  0.19077011 0.20309744
 0.2040597  0.21170035 0.23757816 0.26150025]  max|de|= 0.183  lindep= 0.229
Old state -> New state
    5     ->     6 
    6     ->     7 
    7     ->     8 
    8     ->     9 
davidson 89 16  |r|= 1.23  e= [0.03003573 0.16854044 0.17995961 0.1906758  0.19077011 0.2024425
 0.20309744 0.2040597  0.21170038 0.23801306]  max|de|= -0.0132  lindep= 0.154
Old state -> New state
    6     ->     5 
    7     ->     6 
    8     ->     7 
    9     ->     8 
davidson 90 19  |r|=  1.1  e= [0.01037776 0.16854044 0.17995961 0.1906758  0.19077011 0.20309744
 0.2040597  0.21170035 0.23836804 0.24140318]  max|de|= -0.0197  lindep= 0.13
Old state -> New state
    0     ->     1 
    1     ->     2 
    2     ->     3 
    3     ->     4 
    4     ->     5 
    5     ->     6 
    6     ->     7 
    7     ->     8 
    8     ->     9 
root 6 converged  |r|= 6.67e-09  e= 0.20309744362751314  max|de|= 1.19e-12
davidson 91 22  |r|= 1.32  e= [0.00422304 0.12594956 0.16854044 0.17995961 0.1906758  0.19077011
 0.20309744 0.2040597  0.21170035 0.23784297]  max|de|= 0.116  lindep= 0.111
Old state -> New state
    8     ->     0 
    2     ->     1 
    3     ->     2 
    4     ->     3 
    5     ->     4 
    6     ->     5 
    7     ->     6 
    8     ->     7 
    9     ->     8 
    1     ->     9 
root 7 converged  |r|= 1.18e-07  e= 0.2117003473790306  max|de|= -4.99e-10
davidson 92 25  |r|= 1.19  e= [0.1397379  0.16854044 0.17995961 0.1906758  0.19077011 0.20309744
 0.2040597  0.21170035 0.23791016 0.27517478]  max|de|= 0.149  lindep= 0.264
davidson 93 28  |r|= 1.19  e= [0.05245954 0.16854044 0.17995961 0.1906758  0.19077011 0.20309744
 0.2040597  0.21170035 0.23777481 0.31376307]  max|de|= -0.0873  lindep= 0.252
Old state -> New state
    9     ->     0 
    9     ->     1 
    1     ->     2 
    2     ->     3 
    3     ->     4 
    4     ->     5 
    5     ->     6 
    6     ->     7 
    7     ->     8 
    8     ->     9 
davidson 94 31  |r|= 1.08  e= [0.02856157 0.15051024 0.16854044 0.17995961 0.1906758  0.19077011
 0.20309744 0.2040597  0.21170035 0.23775181]  max|de|= -0.285  lindep= 0.146
Old state -> New state
    2     ->     1 
    3     ->     2 
    4     ->     3 
    5     ->     4 
    6     ->     5 
    7     ->     6 
    8     ->     7 
    9     ->     8 
davidson 95 34  |r|=  1.3  e= [0.13096292 0.16854044 0.17995961 0.1906758  0.19077011 0.20309744
 0.2040597  0.21170035 0.23797897 0.23949924]  max|de|= 0.102  lindep= 0.152
Old state -> New state
    1     ->     0 
davidson 96 37  |r|= 0.939  e= [0.15816026 0.16854044 0.17995961 0.1906758  0.19077011 0.20309744
 0.2040597  0.21170035 0.2378464  0.24934817]  max|de|= -0.0104  lindep= 0.134
Old state -> New state
    1     ->     2 
    2     ->     3 
    3     ->     4 
    4     ->     5 
    5     ->     6 
    6     ->     7 
    7     ->     8 
    8     ->     9 
davidson 97 40  |r|= 1.23  e= [0.14774185 0.16205944 0.16854044 0.17995961 0.1906758  0.19077011
 0.20309744 0.2040597  0.21170035 0.23799576]  max|de|= -0.0104  lindep= 0.202
Old state -> New state
    1     ->     9 
davidson 98 43  |r|= 1.34  e= [0.03169786 0.12444314 0.16854044 0.17995961 0.1906758  0.19077011
 0.20309744 0.2040597  0.21170035 0.23351176]  max|de|= -0.116  lindep= 0.168
Old state -> New state
    2     ->     1 
    3     ->     2 
    4     ->     3 
    5     ->     4 
    6     ->     5 
    7     ->     6 
    8     ->     7 
    1     ->     8 
davidson 99 46  |r|= 1.36  e= [0.11240357 0.16854044 0.17995961 0.1906758  0.19077011 0.20309744
 0.2040597  0.21170035 0.23780741 0.24033651]  max|de|= 0.113  lindep= 0.0961
    CPU time for TDDFT   1693.74 sec, wall time     60.80 sec
TD-SCF states [0, 8, 9] not converged.
Excited State energies (eV)
[3.05865703 4.58621895 4.89695051 5.18855277 5.19111913 5.52656294
 5.55274731 5.76065988 6.47106911 6.53988941]
