 
:: initializing oneAPI environment ...
   slurm_script: BASH_VERSION = 4.2.46(1)-release
   args: Using "$@" for setvars.sh arguments: --force
:: advisor -- latest
:: ccl -- latest
:: clck -- latest
:: compiler -- latest
:: dal -- latest
:: debugger -- latest
:: dev-utilities -- latest
:: dnnl -- latest
:: dpcpp-ct -- latest
:: dpl -- latest
:: inspector -- latest
:: intelpython -- latest
:: ipp -- latest
:: ippcp -- latest
:: ipp -- latest
:: itac -- latest
:: mkl -- latest
:: mpi -- latest
:: tbb -- latest
:: vpl -- latest
:: vtune -- latest
:: oneAPI environment initialized ::
 
SLURM_CPUS_PER_TASK = 28
SLURM_MEM_PER_NODE = 256000
#INFO: **** input file is /home/yangjunjie/work/py-ch3-cl/work/step_-14/main.py ****
import sys
import pyscf
from pyscf import tdscf

def main(xyz_file, basis="631g*", xc="b3lyp", output="ene.out"):
    xyz = None

    with open(xyz_file, "r") as xyz:
        xyz = xyz.readlines()[2:]
        xyz = "".join(xyz)

    mol = pyscf.gto.Mole()
    mol.atom = xyz
    mol.basis = basis
    mol.verbose = 5
    mol.build()

    if xc is not None and xc != "hf":
        mf = pyscf.scf.RKS(mol)
        mf.xc = xc
        mf.kernel()
    else:
        mf = pyscf.scf.RHF(mol)
        mf.kernel()

    ene_mf = mf.e_tot

    tda = pyscf.tdscf.TDA(mf)
    tda.nstates = 10
    tda.kernel()
    ene_tda = tda.e[:5]
    dip_tda = tda.transition_dipole()[:5]

    rpa = pyscf.tdscf.RPA(mf)
    rpa.nstates = 10
    rpa.kernel()
    ene_rpa = rpa.e[:5]
    dip_rpa = rpa.transition_dipole()[:5]

    with open(output, "w") as f:
        f.write(f"RKS energy: {ene_mf: 12.8f}\n")
        f.write("TDA results:\n")
        for i, (ene, dip) in enumerate(zip(ene_tda, dip_tda)):
            f.write(f" {i:2d} {ene: 12.8f} {dip[0]: 12.8f} {dip[1]: 12.8f} {dip[2]: 12.8f}\n")
        
        f.write("\nRPA results:\n")
        for i, (ene, dip) in enumerate(zip(ene_rpa, dip_rpa)):
            f.write(f" {i:2d} {ene: 12.8f} {dip[0]: 12.8f} {dip[1]: 12.8f} {dip[2]: 12.8f}\n")

if __name__ == "__main__":
    xyz = sys.argv[1]
    main(xyz, basis="631g*", xc="b3lyp", output="out.log")
#INFO: ******************** input file end ********************


System: uname_result(system='Linux', node='pauling005', release='3.10.0-327.36.3.el7.x86_64', version='#1 SMP Thu Oct 20 04:56:07 EDT 2016', machine='x86_64')  Threads 28
Python 3.9.7 (default, Oct 27 2021, 01:23:21) 
[GCC 9.3.0]
numpy 1.21.2  scipy 1.6.2
Date: Tue Sep 27 23:10:07 2022
PySCF version 2.0.1
PySCF path  /home/yangjunjie/packages/pyscf/pyscf-main
GIT ORIG_HEAD 14b880cdc4bf7bb64f3989a147c0b04622efc498
GIT HEAD (branch master) 9d5b5bd309d1cc55fbd1a0ec76e26b5b0c7f76af

[ENV] PYSCF_MAX_MEMORY 256000
[ENV] PYSCF_TMPDIR /scratch/global/yangjunjie/
[CONFIG] conf_file /home/yangjunjie/.pyscf_conf.py
[INPUT] verbose = 5
[INPUT] max_memory = 256000 
[INPUT] num. atoms = 16
[INPUT] num. electrons = 68
[INPUT] charge = 0
[INPUT] spin (= nelec alpha-beta = 2S) = 0
[INPUT] symmetry False subgroup None
[INPUT] Mole.unit = angstrom
[INPUT]  1 C      0.000000010000   1.152768110000   1.119736600000 AA    0.000000018897   2.178416013032   2.115995505652 Bohr
[INPUT]  2 C      0.000000000000   1.199357870000   2.519587380000 AA    0.000000000000   2.266457899642   4.761330095110 Bohr
[INPUT]  3 C     -0.000000010000  -0.013295520000   3.201646550000 AA   -0.000000018897  -0.025124891484   6.050235127159 Bohr
[INPUT]  4 C     -0.000000010000  -1.212201590000   2.495722670000 AA   -0.000000018897  -2.290729012862   4.716232329168 Bohr
[INPUT]  5 C      0.000000000000  -1.137849060000   1.096094440000 AA    0.000000000000  -2.150223094494   2.071318298259 Bohr
[INPUT]  6 N      0.000000010000   0.015252390000   0.446453220000 AA    0.000000018897   0.028822839845   0.843674313230 Bohr
[INPUT]  7 C      0.000000000000   0.003225210000  -2.128063190000 AA    0.000000000000   0.006094763594  -4.021456604868 Bohr
[INPUT]  8 H      0.000000020000   2.066586140000   0.529654980000 AA    0.000000037795   3.905281817422   1.000902852712 Bohr
[INPUT]  9 H      0.000000000000   2.146699140000   3.027928630000 AA    0.000000000000   4.056673446439   5.721955835429 Bohr
[INPUT] 10 H     -0.000000020000  -0.024149820000   4.286225620000 AA   -0.000000037795  -0.045636545758   8.099792529894 Bohr
[INPUT] 11 H     -0.000000020000  -2.169093580000   2.984581310000 AA   -0.000000037795  -4.098992804752   5.640041272396 Bohr
[INPUT] 12 H      0.000000000000  -2.037996830000   0.487145870000 AA    0.000000000000  -3.851255851432   0.920572277013 Bohr
[INPUT] 13 H     -0.000000030000   1.033137730000  -1.790490010000 AA   -0.000000056692   1.952347358655  -3.383535747670 Bohr
[INPUT] 14 H     -0.890934540000  -0.504406640000  -1.776626760000 AA   -1.683622275515  -0.953190405012  -3.357338001973 Bohr
[INPUT] 15 H      0.890934560000  -0.504406600000  -1.776626770000 AA    1.683622313310  -0.953190329423  -3.357338020871 Bohr
[INPUT] 16 Cl    -0.000000010000  -0.005364350000  -3.949225030000 AA   -0.000000018897  -0.010137152336  -7.462953710977 Bohr
[INPUT] ---------------- BASIS SET ---------------- 
[INPUT] l, kappa, [nprim/nctr], expnt,             c_1 c_2 ...
[INPUT] N
[INPUT] 0    0    [6    /1   ]  4173.511          0.0018348
                                627.4579          0.013995
                                142.9021          0.068587
                                40.23433          0.232241
                                12.82021          0.46907
                                4.390437          0.360455
[INPUT] 0    0    [3    /1   ]  11.626358         -0.114961
                                2.71628           -0.169118
                                0.772218          1.145852
[INPUT] 0    0    [1    /1   ]  0.2120313            1
[INPUT] 1    0    [3    /1   ]  11.626358         0.06758
                                2.71628           0.323907
                                0.772218          0.740895
[INPUT] 1    0    [1    /1   ]  0.2120313            1
[INPUT] 2    0    [1    /1   ]  0.8                  1
[INPUT] C
[INPUT] 0    0    [6    /1   ]  3047.5249         0.0018347
                                457.36951         0.0140373
                                103.94869         0.0688426
                                29.210155         0.2321844
                                9.286663          0.4679413
                                3.163927          0.362312
[INPUT] 0    0    [3    /1   ]  7.8682724         -0.1193324
                                1.8812885         -0.1608542
                                0.5442493         1.1434564
[INPUT] 0    0    [1    /1   ]  0.1687144            1
[INPUT] 1    0    [3    /1   ]  7.8682724         0.0689991
                                1.8812885         0.316424
                                0.5442493         0.7443083
[INPUT] 1    0    [1    /1   ]  0.1687144            1
[INPUT] 2    0    [1    /1   ]  0.8                  1
[INPUT] H
[INPUT] 0    0    [3    /1   ]  18.731137         0.0334946
                                2.8253937         0.23472695
                                0.6401217         0.81375733
[INPUT] 0    0    [1    /1   ]  0.1612778            1
[INPUT] Cl
[INPUT] 0    0    [6    /1   ]  25180.1           0.001833
                                3780.35           0.014034
                                860.474           0.069097
                                242.145           0.237452
                                77.3349           0.483034
                                26.247            0.339856
[INPUT] 0    0    [6    /1   ]  491.765           -0.0022974
                                116.984           -0.030714
                                37.4153           -0.112528
                                13.7834           0.045016
                                5.45215           0.589353
                                2.22588           0.465206
[INPUT] 0    0    [3    /1   ]  3.18649           -0.25183
                                1.14427           0.061589
                                0.420377          1.06018
[INPUT] 0    0    [1    /1   ]  0.142657             1
[INPUT] 1    0    [6    /1   ]  491.765           0.0039894
                                116.984           0.030318
                                37.4153           0.12988
                                13.7834           0.327951
                                5.45215           0.453527
                                2.22588           0.252154
[INPUT] 1    0    [3    /1   ]  3.18649           -0.014299
                                1.14427           0.323572
                                0.420377          0.743507
[INPUT] 1    0    [1    /1   ]  0.142657             1
[INPUT] 2    0    [1    /1   ]  0.75                 1

nuclear repulsion = 376.69410474928
number of shells = 66
number of NR pGTOs = 272
number of NR cGTOs = 132
basis = 631g*
ecp = {}
CPU time:         0.39


******** <class 'pyscf.dft.rks.RKS'> ********
method = RKS
initial guess = minao
damping factor = 0
level_shift factor = 0
DIIS = <class 'pyscf.scf.diis.CDIIS'>
diis_start_cycle = 1
diis_space = 8
SCF conv_tol = 1e-09
SCF conv_tol_grad = None
SCF max_cycles = 50
direct_scf = True
direct_scf_tol = 1e-13
chkfile to save SCF result = /scratch/global/yangjunjie/tmpjglefpam
max_memory 256000 MB (current use 81 MB)
XC library pyscf.dft.libxc version 5.2.0
    S. Lehtola, C. Steigemann, M. J. Oliveira, and M. A. Marques, SoftwareX 7, 1 (2018)
XC functionals = b3lyp
    P. A. M. Dirac, Math. Proc. Cambridge Philos. Soc. 26, 376 (1930)
    F. Bloch, Z. Phys. 57, 545 (1929)
    A. D. Becke, Phys. Rev. A 38, 3098 (1988)
    C. Lee, W. Yang, and R. G. Parr, Phys. Rev. B 37, 785 (1988)
    B. Miehlich, A. Savin, H. Stoll, and H. Preuss, Chem. Phys. Lett. 157, 200 (1989)
    S. H. Vosko, L. Wilk, and M. Nusair, Can. J. Phys. 58, 1200 (1980)
radial grids: 
    Treutler-Ahlrichs [JCP 102, 346 (1995); DOI:10.1063/1.469408] (M4) radial grids
    
becke partition: Becke, JCP 88, 2547 (1988); DOI:10.1063/1.454033
pruning grids: <function nwchem_prune at 0x7f65fc516ee0>
grids dens level: 3
symmetrized grids: False
atomic radii adjust function: <function treutler_atomic_radii_adjust at 0x7f65fc516e50>
small_rho_cutoff = 1e-07
Set gradient conv threshold to 3.16228e-05
atom C rad-grids = 75, ang-grids = [ 50  50  50  50  50  50  50  50  50  50  50  50  50  50  50  50  50  50
  50  50  50  50  50  86  86  86  86  86  86  86  86  86  86 266 266 266
 266 266 266 266 302 302 302 302 302 302 302 302 302 302 302 302 302 302
 302 302 302 302 302 302 266 266 266 266 266 266 266 266 266 266 266 266
 266 266 266]
atom N rad-grids = 75, ang-grids = [ 50  50  50  50  50  50  50  50  50  50  50  50  50  50  50  50  50  50
  50  50  50  50  50  86  86  86  86  86  86  86  86  86 266 266 266 266
 266 266 266 302 302 302 302 302 302 302 302 302 302 302 302 302 302 302
 302 302 302 302 266 266 266 266 266 266 266 266 266 266 266 266 266 266
 266 266 266]
atom H rad-grids = 50, ang-grids = [ 50  50  50  50  50  50  50  50  50  50  50  50  50  50  86  86  86  86
 266 266 266 266 302 302 302 302 302 302 302 302 302 302 302 302 302 266
 266 266 266 266 266 266 266 266 266 266 266 266 266 266]
atom Cl rad-grids = 80, ang-grids = [ 50  50  50  50  50  50  50  50  50  50  50  50  50  50  50  50  50  50
  50  50  50  50  50  50  86  86  86  86  86  86  86  86  86  86  86  86
  86 350 350 350 350 350 350 350 350 350 434 434 434 434 434 434 434 434
 434 434 434 434 434 434 434 434 434 434 350 350 350 350 350 350 350 350
 350 350 350 350 350 350 350 350]
tot grids = 196530
Drop grids 33189
    CPU time for setting up grids      3.13 sec, wall time      0.12 sec
nelec by numeric integration = 67.97633171810875
    CPU time for vxc      5.91 sec, wall time      0.21 sec
E1 = -1766.5725545274943  Ecoul = 711.2175781528449  Exc = -70.38115640742731
init E= -749.042028032797
cond(S) = 6234.188730475969
    CPU time for initialize scf     15.84 sec, wall time      0.64 sec
  HOMO = -0.292516932310637  LUMO = -0.0964877804385672
  mo_energy =
[-1.01597214e+02 -1.44098950e+01 -1.02914638e+01 -1.02904303e+01
 -1.02899760e+01 -1.02889693e+01 -1.02853600e+01 -1.02848421e+01
 -9.53817501e+00 -7.29407259e+00 -7.29286504e+00 -7.29286442e+00
 -1.10347377e+00 -9.39336763e-01 -9.30394117e-01 -8.84676073e-01
 -7.58497399e-01 -7.14684538e-01 -7.02434959e-01 -5.77408468e-01
 -5.30888087e-01 -5.13721982e-01 -4.74081579e-01 -4.73461046e-01
 -4.62856378e-01 -4.61139343e-01 -4.37338815e-01 -4.28938808e-01
 -3.99921653e-01 -3.44165382e-01 -3.42933456e-01 -3.26873210e-01
 -2.97367071e-01 -2.92516932e-01 -9.64877804e-02 -8.13362470e-02
 -3.40478905e-02  5.25394194e-02  6.83337425e-02  7.76041844e-02
  9.06020623e-02  1.13757071e-01  1.21593378e-01  1.22878125e-01
  1.44562709e-01  1.65252716e-01  2.01497177e-01  2.40549104e-01
  2.55797199e-01  2.59415798e-01  3.59695176e-01  3.83717229e-01
  4.02954739e-01  4.14938764e-01  4.14943767e-01  4.23546037e-01
  4.64651664e-01  4.75812720e-01  4.87643609e-01  5.07920958e-01
  5.29482323e-01  5.37534502e-01  5.42446196e-01  5.51796482e-01
  5.55187284e-01  5.57018253e-01  5.63361831e-01  6.07769205e-01
  6.26511244e-01  6.39809423e-01  6.88697371e-01  7.64916855e-01
  7.70899386e-01  7.88622815e-01  7.89030086e-01  7.92025114e-01
  8.00048812e-01  8.03843747e-01  8.27257184e-01  8.41312260e-01
  8.49560910e-01  8.69756800e-01  8.79768376e-01  8.98854072e-01
  9.07612472e-01  9.24302375e-01  9.79162928e-01  1.00753342e+00
  1.03559884e+00  1.07871984e+00  1.12226952e+00  1.15248544e+00
  1.16277954e+00  1.17892607e+00  1.30831617e+00  1.34877821e+00
  1.39559128e+00  1.41376531e+00  1.41537066e+00  1.45138322e+00
  1.45213721e+00  1.47250755e+00  1.62431579e+00  1.62508438e+00
  1.64391480e+00  1.69859904e+00  1.75101999e+00  1.77341198e+00
  1.86719351e+00  1.89442686e+00  1.98608263e+00  2.05122292e+00
  2.06152146e+00  2.09947753e+00  2.10327942e+00  2.12939708e+00
  2.14773592e+00  2.16871553e+00  2.18451890e+00  2.21664826e+00
  2.25641486e+00  2.30254849e+00  2.47692383e+00  2.48526585e+00
  2.58154799e+00  2.61056789e+00  2.62338773e+00  2.63663180e+00
  2.70113125e+00  2.70822162e+00  2.95940451e+00  3.31823436e+00]
nelec by numeric integration = 68.00003219153385
    CPU time for vxc      5.90 sec, wall time      0.21 sec
E1 = -1774.683886702628  Ecoul = 720.7344057861022  Exc = -70.8279280031536
cycle= 1 E= -748.083304170399  delta_E= 0.959  |g|= 0.381  |ddm|= 3.94
    CPU time for cycle= 1      6.38 sec, wall time      0.23 sec
  HOMO = -0.194252910792845  LUMO = 0.0115371538193766
  mo_energy =
[-1.01353846e+02 -1.41899905e+01 -1.01909743e+01 -1.01897622e+01
 -1.01486561e+01 -1.01288124e+01 -1.00967111e+01 -1.00963357e+01
 -9.31000469e+00 -7.07085282e+00 -7.06095688e+00 -7.06094802e+00
 -9.00019262e-01 -7.73709093e-01 -7.58728294e-01 -7.33516055e-01
 -6.18479751e-01 -6.03472062e-01 -5.99596096e-01 -5.11255109e-01
 -4.59904443e-01 -4.39503845e-01 -4.13347694e-01 -4.01746641e-01
 -3.98922365e-01 -3.75187994e-01 -3.65126202e-01 -3.43422039e-01
 -3.36903432e-01 -2.50195471e-01 -2.37053346e-01 -2.25471570e-01
 -2.24753909e-01 -1.94252911e-01  1.15371538e-02  1.33312290e-02
  8.29518388e-02  1.11644500e-01  1.31810836e-01  1.39090660e-01
  1.60494212e-01  1.66613776e-01  1.76914350e-01  1.84459085e-01
  1.85799256e-01  2.15373108e-01  2.80661974e-01  3.12747492e-01
  3.39267006e-01  3.45858440e-01  4.63544940e-01  4.69686513e-01
  4.79019254e-01  5.15418308e-01  5.15688256e-01  5.19252616e-01
  5.33204898e-01  5.62844829e-01  5.71804818e-01  5.97094983e-01
  6.00327721e-01  6.04099902e-01  6.19472943e-01  6.24560332e-01
  6.33170291e-01  6.34403566e-01  6.68074911e-01  6.74614029e-01
  7.13831856e-01  7.20213641e-01  7.78906165e-01  8.31060162e-01
  8.49009289e-01  8.70433322e-01  8.75194495e-01  8.94340674e-01
  9.12668939e-01  9.23951236e-01  9.32925555e-01  9.52071101e-01
  9.55062748e-01  9.75401297e-01  9.81685584e-01  1.00188080e+00
  1.02334287e+00  1.02479417e+00  1.06037277e+00  1.09361211e+00
  1.10407035e+00  1.14600299e+00  1.18052057e+00  1.23564735e+00
  1.26084123e+00  1.28827948e+00  1.40993088e+00  1.42173773e+00
  1.47162211e+00  1.50964162e+00  1.51933821e+00  1.54437459e+00
  1.56569644e+00  1.56781289e+00  1.73960449e+00  1.74000181e+00
  1.74132186e+00  1.79443587e+00  1.87107963e+00  1.88335735e+00
  1.97271089e+00  1.99457552e+00  2.10078966e+00  2.16546727e+00
  2.16867524e+00  2.20917646e+00  2.21539102e+00  2.24652448e+00
  2.25752910e+00  2.27652401e+00  2.29130838e+00  2.32211984e+00
  2.37741125e+00  2.41093080e+00  2.58094779e+00  2.59663632e+00
  2.70491331e+00  2.72649758e+00  2.73928345e+00  2.76117076e+00
  2.83213355e+00  2.83562762e+00  3.09003977e+00  3.44800136e+00]
nelec by numeric integration = 68.00003069412278
    CPU time for vxc      6.13 sec, wall time      0.22 sec
E1 = -1767.1908850417021  Ecoul = 712.6547884660406  Exc = -70.24260033235775
cycle= 2 E= -748.084592158739  delta_E= -0.00129  |g|= 0.403  |ddm|= 0.977
    CPU time for cycle= 2      6.63 sec, wall time      0.24 sec
  HOMO = -0.259123514597193  LUMO = -0.0302427483569035
  mo_energy =
[-1.01467232e+02 -1.43549003e+01 -1.02133406e+01 -1.02128636e+01
 -1.02057656e+01 -1.01988880e+01 -1.01985900e+01 -1.01947211e+01
 -9.40202458e+00 -7.16479016e+00 -7.15516250e+00 -7.15515274e+00
 -9.61184842e-01 -8.13857212e-01 -8.08854108e-01 -7.70430065e-01
 -6.48039639e-01 -6.44837755e-01 -6.31114209e-01 -5.37708271e-01
 -4.88647124e-01 -4.82620713e-01 -4.40216654e-01 -4.21906773e-01
 -4.17153190e-01 -4.13672613e-01 -4.06815504e-01 -3.78900179e-01
 -3.72530728e-01 -2.99959988e-01 -2.69259168e-01 -2.62655414e-01
 -2.62171566e-01 -2.59123515e-01 -3.02427484e-02 -2.03450078e-02
  6.10034063e-02  9.20472302e-02  1.22035222e-01  1.28953765e-01
  1.38616975e-01  1.49379429e-01  1.56596145e-01  1.74024029e-01
  1.76661114e-01  2.06981010e-01  2.52245690e-01  2.87696306e-01
  3.13295249e-01  3.13831681e-01  4.37913112e-01  4.40570830e-01
  4.49474516e-01  4.88206319e-01  4.88748490e-01  4.88981921e-01
  5.05710949e-01  5.28521724e-01  5.48766936e-01  5.75522129e-01
  5.78046118e-01  5.79516822e-01  5.88641907e-01  5.95390457e-01
  6.00911584e-01  6.05774563e-01  6.27176719e-01  6.47847749e-01
  6.80826229e-01  6.92502950e-01  7.48461696e-01  8.16091248e-01
  8.23784549e-01  8.42478200e-01  8.49608250e-01  8.51259738e-01
  8.85217165e-01  8.88876642e-01  9.08244877e-01  9.18561878e-01
  9.28549812e-01  9.38285034e-01  9.40437836e-01  9.77946319e-01
  9.84416106e-01  9.89988686e-01  1.02696817e+00  1.06741893e+00
  1.08109806e+00  1.12083473e+00  1.15947594e+00  1.20416765e+00
  1.22737682e+00  1.24217497e+00  1.36894787e+00  1.38999732e+00
  1.45154664e+00  1.46011162e+00  1.47846510e+00  1.51009363e+00
  1.51328537e+00  1.53217010e+00  1.69799414e+00  1.71486635e+00
  1.71531488e+00  1.75851028e+00  1.82480689e+00  1.83547556e+00
  1.92971231e+00  1.96036263e+00  2.05820279e+00  2.12340311e+00
  2.12494838e+00  2.16589853e+00  2.16943450e+00  2.20795264e+00
  2.22275586e+00  2.25643551e+00  2.27091553e+00  2.28473911e+00
  2.32670642e+00  2.36549696e+00  2.54237639e+00  2.55012632e+00
  2.65813000e+00  2.68045162e+00  2.69395248e+00  2.71695699e+00
  2.78126517e+00  2.78427146e+00  3.03946588e+00  3.40090509e+00]
nelec by numeric integration = 68.00003022789758
    CPU time for vxc      5.90 sec, wall time      0.21 sec
E1 = -1770.7013233782113  Ecoul = 716.3898826555144  Exc = -70.50721591550196
cycle= 3 E= -748.124551888919  delta_E= -0.04  |g|= 0.0801  |ddm|= 0.485
    CPU time for cycle= 3      6.41 sec, wall time      0.23 sec
  HOMO = -0.255133876662683  LUMO = -0.0309175129370602
  mo_energy =
[-1.01492004e+02 -1.43266027e+01 -1.02313239e+01 -1.02309985e+01
 -1.02165561e+01 -1.02078580e+01 -1.02076197e+01 -1.02073332e+01
 -9.42269510e+00 -7.18577686e+00 -7.17628834e+00 -7.17627793e+00
 -9.56854670e-01 -8.18624426e-01 -8.14838444e-01 -7.75280514e-01
 -6.54271860e-01 -6.46035034e-01 -6.36316054e-01 -5.40959192e-01
 -4.91863438e-01 -4.85873330e-01 -4.44786915e-01 -4.24584589e-01
 -4.20853356e-01 -4.16126107e-01 -4.07760215e-01 -3.82058287e-01
 -3.80388092e-01 -2.99827799e-01 -2.74309589e-01 -2.71560957e-01
 -2.70970862e-01 -2.55133877e-01 -3.09175129e-02 -2.45810681e-02
  5.58714544e-02  9.00574691e-02  1.20059726e-01  1.26863431e-01
  1.36516532e-01  1.48181980e-01  1.55536736e-01  1.72626316e-01
  1.75388902e-01  2.05368753e-01  2.50964114e-01  2.85136350e-01
  3.11238269e-01  3.12361951e-01  4.30206548e-01  4.37845884e-01
  4.46849261e-01  4.82298006e-01  4.82635883e-01  4.84352205e-01
  5.02196017e-01  5.26830228e-01  5.45239660e-01  5.71703747e-01
  5.74777654e-01  5.75670627e-01  5.85796591e-01  5.91582568e-01
  5.98260399e-01  6.01722954e-01  6.28107988e-01  6.44148311e-01
  6.78415811e-01  6.88369283e-01  7.46477328e-01  8.11947432e-01
  8.20750996e-01  8.39301197e-01  8.46454642e-01  8.55808331e-01
  8.78692912e-01  8.82339813e-01  9.03839033e-01  9.14314444e-01
  9.22145571e-01  9.32081303e-01  9.32525248e-01  9.72642900e-01
  9.77642993e-01  9.83891616e-01  1.02738596e+00  1.06449443e+00
  1.07792927e+00  1.11951805e+00  1.15718100e+00  1.20294535e+00
  1.22348075e+00  1.23881914e+00  1.36534446e+00  1.39096482e+00
  1.45059879e+00  1.45708817e+00  1.47299411e+00  1.50623643e+00
  1.51470575e+00  1.53372247e+00  1.69794185e+00  1.70962539e+00
  1.70991512e+00  1.75804755e+00  1.82061671e+00  1.83476869e+00
  1.92780513e+00  1.95593907e+00  2.05319826e+00  2.11905601e+00
  2.12096042e+00  2.16323775e+00  2.16597348e+00  2.20553252e+00
  2.21781365e+00  2.25221458e+00  2.26681596e+00  2.27924652e+00
  2.32459954e+00  2.36498370e+00  2.53786722e+00  2.54879689e+00
  2.65473253e+00  2.67784305e+00  2.69167624e+00  2.71244885e+00
  2.77913954e+00  2.78140713e+00  3.03833090e+00  3.39752758e+00]
nelec by numeric integration = 68.0000305773445
    CPU time for vxc      5.88 sec, wall time      0.21 sec
E1 = -1770.9582069575213  Ecoul = 716.6642895411468  Exc = -70.52588706607479
cycle= 4 E= -748.12569973317  delta_E= -0.00115  |g|= 0.0344  |ddm|= 0.0922
    CPU time for cycle= 4      6.41 sec, wall time      0.23 sec
  HOMO = -0.258102444931817  LUMO = -0.0298903934063716
  mo_energy =
[-1.01486717e+02 -1.43357726e+01 -1.02291082e+01 -1.02290981e+01
 -1.02105547e+01 -1.02080815e+01 -1.02014895e+01 -1.02014423e+01
 -9.41884224e+00 -7.18173062e+00 -7.17232665e+00 -7.17231615e+00
 -9.57643523e-01 -8.17420871e-01 -8.11994262e-01 -7.73177736e-01
 -6.54955809e-01 -6.45146703e-01 -6.34258274e-01 -5.39377112e-01
 -4.90283656e-01 -4.84420234e-01 -4.42848693e-01 -4.25609110e-01
 -4.21826615e-01 -4.14643668e-01 -4.07357679e-01 -3.80523123e-01
 -3.79704616e-01 -2.98372651e-01 -2.72059710e-01 -2.70884019e-01
 -2.70221649e-01 -2.58102445e-01 -2.98903934e-02 -2.26043460e-02
  5.59945216e-02  9.11711369e-02  1.19780206e-01  1.26949298e-01
  1.37831342e-01  1.48435098e-01  1.56235850e-01  1.71550008e-01
  1.76035804e-01  2.05013550e-01  2.52065784e-01  2.87139630e-01
  3.12386685e-01  3.13052298e-01  4.30724047e-01  4.38882901e-01
  4.47777005e-01  4.82660712e-01  4.82982409e-01  4.84933146e-01
  5.04126562e-01  5.28026535e-01  5.45178152e-01  5.71679664e-01
  5.76162089e-01  5.77598022e-01  5.88527411e-01  5.93182780e-01
  6.00207071e-01  6.03939369e-01  6.26967827e-01  6.45797992e-01
  6.80749890e-01  6.88570605e-01  7.45821020e-01  8.12885287e-01
  8.23417431e-01  8.40135540e-01  8.48246469e-01  8.53416053e-01
  8.79030006e-01  8.82478501e-01  9.04164310e-01  9.16125693e-01
  9.23191975e-01  9.32557756e-01  9.33873639e-01  9.73892981e-01
  9.77749477e-01  9.84013648e-01  1.02678615e+00  1.06508728e+00
  1.07857094e+00  1.12024654e+00  1.15913320e+00  1.20386327e+00
  1.22295332e+00  1.24078464e+00  1.36763505e+00  1.39126953e+00
  1.45103988e+00  1.45987186e+00  1.47614803e+00  1.50727685e+00
  1.51424905e+00  1.53135616e+00  1.69839048e+00  1.70879462e+00
  1.70895106e+00  1.75825598e+00  1.82330272e+00  1.83592495e+00
  1.93024188e+00  1.95811279e+00  2.05608230e+00  2.12169011e+00
  2.12310803e+00  2.16602029e+00  2.16717272e+00  2.20609697e+00
  2.21766747e+00  2.25115047e+00  2.26573165e+00  2.28144297e+00
  2.32651627e+00  2.36512271e+00  2.54020278e+00  2.55019778e+00
  2.65664322e+00  2.67963711e+00  2.69227945e+00  2.71431600e+00
  2.78119274e+00  2.78264412e+00  3.03837247e+00  3.39891969e+00]
nelec by numeric integration = 68.00003041676436
    CPU time for vxc      5.90 sec, wall time      0.21 sec
E1 = -1770.8943148600495  Ecoul = 716.5960305064332  Exc = -70.52177145622964
cycle= 5 E= -748.125951060566  delta_E= -0.000251  |g|= 0.0107  |ddm|= 0.0414
    CPU time for cycle= 5      6.45 sec, wall time      0.23 sec
  HOMO = -0.256587258324859  LUMO = -0.0294472053479511
  mo_energy =
[-1.01484081e+02 -1.43329220e+01 -1.02260115e+01 -1.02259388e+01
 -1.02122761e+01 -1.02056764e+01 -1.02027355e+01 -1.02026947e+01
 -9.41682074e+00 -7.17963775e+00 -7.17024889e+00 -7.17023830e+00
 -9.55942993e-01 -8.16656165e-01 -8.12212178e-01 -7.72409266e-01
 -6.53887263e-01 -6.44524623e-01 -6.33932671e-01 -5.39120381e-01
 -4.89712735e-01 -4.84325249e-01 -4.42459293e-01 -4.24655143e-01
 -4.20940780e-01 -4.14628105e-01 -4.06457627e-01 -3.80322082e-01
 -3.78866234e-01 -2.98294659e-01 -2.71527761e-01 -2.70100400e-01
 -2.69462561e-01 -2.56587258e-01 -2.94472053e-02 -2.21129891e-02
  5.69150070e-02  9.11730630e-02  1.20253878e-01  1.27434768e-01
  1.38284390e-01  1.48632642e-01  1.56307007e-01  1.72234179e-01
  1.76086283e-01  2.05612626e-01  2.52451436e-01  2.87046518e-01
  3.12718857e-01  3.13682072e-01  4.31378821e-01  4.39321668e-01
  4.48188457e-01  4.83227750e-01  4.83552781e-01  4.85506710e-01
  5.04509145e-01  5.28293583e-01  5.45744467e-01  5.72440339e-01
  5.76631779e-01  5.77996142e-01  5.88326791e-01  5.93471016e-01
  6.00233805e-01  6.03921688e-01  6.28159261e-01  6.46204714e-01
  6.80402164e-01  6.89676627e-01  7.46975040e-01  8.13629367e-01
  8.22723301e-01  8.40655578e-01  8.48228660e-01  8.54755486e-01
  8.79924806e-01  8.83431331e-01  9.04685685e-01  9.16257184e-01
  9.23721714e-01  9.33479147e-01  9.34200045e-01  9.74420290e-01
  9.78746128e-01  9.84846947e-01  1.02776961e+00  1.06562085e+00
  1.07905606e+00  1.12074063e+00  1.15893734e+00  1.20418784e+00
  1.22383702e+00  1.24125083e+00  1.36796700e+00  1.39161666e+00
  1.45159043e+00  1.45969875e+00  1.47608687e+00  1.50852052e+00
  1.51538387e+00  1.53251368e+00  1.69911810e+00  1.70997451e+00
  1.71014940e+00  1.75925136e+00  1.82342944e+00  1.83628021e+00
  1.92999466e+00  1.95858912e+00  2.05632243e+00  2.12190867e+00
  2.12364292e+00  2.16575722e+00  2.16824524e+00  2.20699999e+00
  2.21882245e+00  2.25223901e+00  2.26683891e+00  2.28207508e+00
  2.32655484e+00  2.36627638e+00  2.54066241e+00  2.55065038e+00
  2.65715038e+00  2.68001250e+00  2.69320528e+00  2.71499693e+00
  2.78128930e+00  2.78337067e+00  3.03953370e+00  3.39957635e+00]
nelec by numeric integration = 68.00003044607244
    CPU time for vxc      5.83 sec, wall time      0.21 sec
E1 = -1770.8311429359499  Ecoul = 716.5288825953701  Exc = -70.51782234856633
cycle= 6 E= -748.125977939866  delta_E= -2.69e-05  |g|= 0.00462  |ddm|= 0.0158
    CPU time for cycle= 6      6.37 sec, wall time      0.23 sec
  HOMO = -0.25690626219891  LUMO = -0.029497881243337
  mo_energy =
[-1.01484113e+02 -1.43335746e+01 -1.02270983e+01 -1.02270169e+01
 -1.02114299e+01 -1.02057887e+01 -1.02024143e+01 -1.02023821e+01
 -9.41689165e+00 -7.17970161e+00 -7.17031608e+00 -7.17030546e+00
 -9.56540815e-01 -8.16777733e-01 -8.12120383e-01 -7.72666568e-01
 -6.53951577e-01 -6.44657968e-01 -6.33974737e-01 -5.39158822e-01
 -4.89866642e-01 -4.84304585e-01 -4.42617955e-01 -4.24805773e-01
 -4.21057876e-01 -4.14551858e-01 -4.06723624e-01 -3.80349174e-01
 -3.78958861e-01 -2.98266806e-01 -2.71721686e-01 -2.70212885e-01
 -2.69579395e-01 -2.56906262e-01 -2.94978812e-02 -2.22668472e-02
  5.68005892e-02  9.12437010e-02  1.20204833e-01  1.27351757e-01
  1.38205805e-01  1.48634284e-01  1.56363887e-01  1.72116362e-01
  1.76128000e-01  2.05504745e-01  2.52346364e-01  2.87111141e-01
  3.12677277e-01  3.13527781e-01  4.31346989e-01  4.39213714e-01
  4.48102099e-01  4.83123745e-01  4.83447974e-01  4.85323755e-01
  5.04394024e-01  5.28258678e-01  5.45672977e-01  5.72314290e-01
  5.76511929e-01  5.77865177e-01  5.88371242e-01  5.93437312e-01
  6.00241422e-01  6.03958889e-01  6.27875000e-01  6.46082575e-01
  6.80557050e-01  6.89426243e-01  7.46744769e-01  8.13437957e-01
  8.23016678e-01  8.40554912e-01  8.48256209e-01  8.54480976e-01
  8.79798923e-01  8.83292889e-01  9.04691723e-01  9.16305465e-01
  9.23668449e-01  9.33353661e-01  9.34198117e-01  9.74348033e-01
  9.78616162e-01  9.84752190e-01  1.02754702e+00  1.06553647e+00
  1.07898671e+00  1.12062407e+00  1.15902425e+00  1.20412176e+00
  1.22369491e+00  1.24111805e+00  1.36784040e+00  1.39156216e+00
  1.45146511e+00  1.45976073e+00  1.47612239e+00  1.50810140e+00
  1.51505701e+00  1.53233663e+00  1.69892031e+00  1.70983473e+00
  1.71001547e+00  1.75897126e+00  1.82339890e+00  1.83621824e+00
  1.93008865e+00  1.95840634e+00  2.05623511e+00  2.12184779e+00
  2.12343960e+00  2.16586167e+00  2.16790638e+00  2.20682043e+00
  2.21862172e+00  2.25211529e+00  2.26670546e+00  2.28187382e+00
  2.32662463e+00  2.36592454e+00  2.54049989e+00  2.55052968e+00
  2.65699835e+00  2.67992571e+00  2.69298872e+00  2.71481213e+00
  2.78132151e+00  2.78318799e+00  3.03924811e+00  3.39944484e+00]
nelec by numeric integration = 68.00003043366425
    CPU time for vxc      6.49 sec, wall time      0.23 sec
E1 = -1770.8453811745721  Ecoul = 716.5436212520954  Exc = -70.51832872549619
cycle= 7 E= -748.125983898693  delta_E= -5.96e-06  |g|= 0.000492  |ddm|= 0.00476
    CPU time for cycle= 7      7.40 sec, wall time      0.26 sec
  HOMO = -0.256880796221554  LUMO = -0.0294873801007428
  mo_energy =
[-1.01484361e+02 -1.43335369e+01 -1.02270267e+01 -1.02269641e+01
 -1.02115568e+01 -1.02059968e+01 -1.02023032e+01 -1.02022852e+01
 -9.41708215e+00 -7.17990028e+00 -7.17051098e+00 -7.17050037e+00
 -9.56508886e-01 -8.16852753e-01 -8.12130583e-01 -7.72622389e-01
 -6.54015276e-01 -6.44634809e-01 -6.33954935e-01 -5.39146828e-01
 -4.89840630e-01 -4.84279301e-01 -4.42584277e-01 -4.24845529e-01
 -4.21106191e-01 -4.14567473e-01 -4.06707583e-01 -3.80334177e-01
 -3.79032447e-01 -2.98264336e-01 -2.71688117e-01 -2.70287455e-01
 -2.69646383e-01 -2.56880796e-01 -2.94873801e-02 -2.22337324e-02
  5.67380536e-02  9.12311851e-02  1.20198581e-01  1.27359147e-01
  1.38228765e-01  1.48635317e-01  1.56364317e-01  1.72093710e-01
  1.76133742e-01  2.05501742e-01  2.52356316e-01  2.87120675e-01
  3.12694762e-01  3.13553146e-01  4.31280820e-01  4.39226800e-01
  4.48114180e-01  4.83070986e-01  4.83394694e-01  4.85288733e-01
  5.04412295e-01  5.28269151e-01  5.45636868e-01  5.72294032e-01
  5.76537179e-01  5.77897725e-01  5.88380998e-01  5.93428258e-01
  6.00244260e-01  6.03967429e-01  6.27880295e-01  6.46111579e-01
  6.80561892e-01  6.89443862e-01  7.46743236e-01  8.13464405e-01
  8.23000309e-01  8.40574819e-01  8.48282719e-01  8.54489717e-01
  8.79740253e-01  8.83225857e-01  9.04658361e-01  9.16289256e-01
  9.23635802e-01  9.33279187e-01  9.34171986e-01  9.74335090e-01
  9.78549100e-01  9.84698163e-01  1.02756877e+00  1.06552390e+00
  1.07897484e+00  1.12062728e+00  1.15903169e+00  1.20414040e+00
  1.22364838e+00  1.24114306e+00  1.36786564e+00  1.39157149e+00
  1.45148279e+00  1.45977807e+00  1.47613611e+00  1.50814052e+00
  1.51508367e+00  1.53233834e+00  1.69894499e+00  1.70975844e+00
  1.70993302e+00  1.75899220e+00  1.82341602e+00  1.83623487e+00
  1.93009455e+00  1.95844322e+00  2.05625406e+00  2.12187395e+00
  2.12347565e+00  2.16586883e+00  2.16794072e+00  2.20681103e+00
  2.21857619e+00  2.25204943e+00  2.26664091e+00  2.28191273e+00
  2.32662935e+00  2.36595438e+00  2.54053391e+00  2.55054494e+00
  2.65702851e+00  2.67994509e+00  2.69301818e+00  2.71484950e+00
  2.78133175e+00  2.78321569e+00  3.03927981e+00  3.39947344e+00]
nelec by numeric integration = 68.0000304388416
    CPU time for vxc      6.00 sec, wall time      0.21 sec
E1 = -1770.8469296685942  Ecoul = 716.5453095761311  Exc = -70.51846861581282
cycle= 8 E= -748.125983958996  delta_E= -6.03e-08  |g|= 0.000178  |ddm|= 0.000644
    CPU time for cycle= 8      6.79 sec, wall time      0.24 sec
  HOMO = -0.256881748399867  LUMO = -0.0294814971389396
  mo_energy =
[-1.01484364e+02 -1.43335377e+01 -1.02270189e+01 -1.02269445e+01
 -1.02115048e+01 -1.02059676e+01 -1.02023383e+01 -1.02023097e+01
 -9.41707883e+00 -7.17989895e+00 -7.17050779e+00 -7.17049719e+00
 -9.56506597e-01 -8.16841893e-01 -8.12124355e-01 -7.72624593e-01
 -6.54006641e-01 -6.44635632e-01 -6.33951772e-01 -5.39142162e-01
 -4.89839141e-01 -4.84285261e-01 -4.42587753e-01 -4.24836035e-01
 -4.21096023e-01 -4.14557445e-01 -4.06704447e-01 -3.80334000e-01
 -3.79025767e-01 -2.98258545e-01 -2.71690634e-01 -2.70281462e-01
 -2.69640925e-01 -2.56881748e-01 -2.94814971e-02 -2.22366055e-02
  5.67456613e-02  9.12340165e-02  1.20202420e-01  1.27359940e-01
  1.38229516e-01  1.48635018e-01  1.56367383e-01  1.72100007e-01
  1.76133262e-01  2.05505598e-01  2.52358629e-01  2.87123334e-01
  3.12694749e-01  3.13552190e-01  4.31278500e-01  4.39227511e-01
  4.48115661e-01  4.83075474e-01  4.83399236e-01  4.85294866e-01
  5.04414558e-01  5.28270808e-01  5.45644037e-01  5.72299466e-01
  5.76534763e-01  5.77894681e-01  5.88382987e-01  5.93437230e-01
  6.00249773e-01  6.03969654e-01  6.27883143e-01  6.46109242e-01
  6.80563276e-01  6.89446232e-01  7.46748456e-01  8.13464231e-01
  8.23010152e-01  8.40574175e-01  8.48276248e-01  8.54492181e-01
  8.79747535e-01  8.83233757e-01  9.04663327e-01  9.16292520e-01
  9.23641633e-01  9.33287005e-01  9.34176268e-01  9.74339332e-01
  9.78553944e-01  9.84703308e-01  1.02756881e+00  1.06552660e+00
  1.07897802e+00  1.12063061e+00  1.15903199e+00  1.20413895e+00
  1.22365344e+00  1.24114419e+00  1.36786689e+00  1.39157342e+00
  1.45148294e+00  1.45977711e+00  1.47614111e+00  1.50814180e+00
  1.51508537e+00  1.53234170e+00  1.69894451e+00  1.70977318e+00
  1.70994860e+00  1.75899502e+00  1.82341862e+00  1.83623779e+00
  1.93009723e+00  1.95844040e+00  2.05625861e+00  2.12187398e+00
  2.12347402e+00  2.16587215e+00  2.16794244e+00  2.20681851e+00
  2.21858714e+00  2.25206295e+00  2.26665445e+00  2.28191031e+00
  2.32663455e+00  2.36595618e+00  2.54053296e+00  2.55054869e+00
  2.65702791e+00  2.67994807e+00  2.69301867e+00  2.71484781e+00
  2.78133659e+00  2.78321758e+00  3.03928160e+00  3.39947455e+00]
nelec by numeric integration = 68.00003043837526
    CPU time for vxc      5.83 sec, wall time      0.21 sec
E1 = -1770.8465456688905  Ecoul = 716.5449047418508  Exc = -70.51844778825597
cycle= 9 E= -748.125983966016  delta_E= -7.02e-09  |g|= 4.76e-05  |ddm|= 0.000162
    CPU time for cycle= 9      6.37 sec, wall time      0.23 sec
  HOMO = -0.256887069252552  LUMO = -0.0294867943372364
  mo_energy =
[-1.01484335e+02 -1.43335451e+01 -1.02270220e+01 -1.02269557e+01
 -1.02115219e+01 -1.02059575e+01 -1.02023369e+01 -1.02023160e+01
 -9.41705444e+00 -7.17987421e+00 -7.17048293e+00 -7.17047233e+00
 -9.56512063e-01 -8.16834563e-01 -8.12128126e-01 -7.72628553e-01
 -6.54002447e-01 -6.44640193e-01 -6.33955877e-01 -5.39146281e-01
 -4.89844432e-01 -4.84287659e-01 -4.42590547e-01 -4.24835501e-01
 -4.21094795e-01 -4.14561384e-01 -4.06708142e-01 -3.80337901e-01
 -3.79019114e-01 -2.98263779e-01 -2.71693327e-01 -2.70271051e-01
 -2.69631562e-01 -2.56887069e-01 -2.94867943e-02 -2.22403386e-02
  5.67509227e-02  9.12330630e-02  1.20201074e-01  1.27358710e-01
  1.38225151e-01  1.48633783e-01  1.56364942e-01  1.72099845e-01
  1.76132204e-01  2.05503939e-01  2.52355245e-01  2.87119728e-01
  3.12691284e-01  3.13548467e-01  4.31288237e-01  4.39225393e-01
  4.48112963e-01  4.83082821e-01  4.83406638e-01  4.85298798e-01
  5.04410881e-01  5.28267139e-01  5.45645407e-01  5.72299877e-01
  5.76531873e-01  5.77891954e-01  5.88378930e-01  5.93433524e-01
  6.00245820e-01  6.03966118e-01  6.27880091e-01  6.46106333e-01
  6.80559533e-01  6.89443483e-01  7.46745948e-01  8.13461586e-01
  8.23005246e-01  8.40571500e-01  8.48274135e-01  8.54488916e-01
  8.79753833e-01  8.83241184e-01  9.04664349e-01  9.16292963e-01
  9.23644134e-01  9.33296315e-01  9.34177592e-01  9.74339684e-01
  9.78561625e-01  9.84708441e-01  1.02756537e+00  1.06552658e+00
  1.07897765e+00  1.12062793e+00  1.15902908e+00  1.20413577e+00
  1.22365764e+00  1.24113902e+00  1.36786228e+00  1.39156957e+00
  1.45147973e+00  1.45977206e+00  1.47613575e+00  1.50813762e+00
  1.51507987e+00  1.53233819e+00  1.69893994e+00  1.70977606e+00
  1.70995192e+00  1.75899107e+00  1.82341377e+00  1.83623264e+00
  1.93009260e+00  1.95843687e+00  2.05625344e+00  2.12186927e+00
  2.12346988e+00  2.16586647e+00  2.16793810e+00  2.20681563e+00
  2.21858820e+00  2.25206462e+00  2.26665597e+00  2.28190651e+00
  2.32662834e+00  2.36595117e+00  2.54052888e+00  2.55054331e+00
  2.65702301e+00  2.67994299e+00  2.69301346e+00  2.71484322e+00
  2.78133061e+00  2.78321222e+00  3.03927617e+00  3.39946931e+00]
nelec by numeric integration = 68.00003043799686
    CPU time for vxc      6.62 sec, wall time      0.24 sec
E1 = -1770.846432570517  Ecoul = 716.5447814974073  Exc = -70.51843764280761
cycle= 10 E= -748.125983966637  delta_E= -6.22e-10  |g|= 1.63e-05  |ddm|= 8.09e-05
    CPU time for cycle= 10      7.16 sec, wall time      0.26 sec
  HOMO = -0.256887040210187  LUMO = -0.0294853095680567
  mo_energy =
[-1.01484348e+02 -1.43335472e+01 -1.02270218e+01 -1.02269449e+01
 -1.02115158e+01 -1.02059588e+01 -1.02023425e+01 -1.02023114e+01
 -9.41706545e+00 -7.17988541e+00 -7.17049415e+00 -7.17048355e+00
 -9.56510521e-01 -8.16838199e-01 -8.12127455e-01 -7.72626920e-01
 -6.54003708e-01 -6.44638823e-01 -6.33954338e-01 -5.39144696e-01
 -4.89842746e-01 -4.84286870e-01 -4.42589316e-01 -4.24835784e-01
 -4.21095184e-01 -4.14560421e-01 -4.06706969e-01 -3.80336575e-01
 -3.79021539e-01 -2.98262509e-01 -2.71692174e-01 -2.70275275e-01
 -2.69635386e-01 -2.56887040e-01 -2.94853096e-02 -2.22389142e-02
  5.67490375e-02  9.12332066e-02  1.20201793e-01  1.27359146e-01
  1.38226471e-01  1.48633982e-01  1.56365799e-01  1.72099672e-01
  1.76131856e-01  2.05505131e-01  2.52356266e-01  2.87120812e-01
  3.12692500e-01  3.13549388e-01  4.31285551e-01  4.39225734e-01
  4.48114011e-01  4.83079828e-01  4.83403631e-01  4.85296403e-01
  5.04412450e-01  5.28268042e-01  5.45644730e-01  5.72299625e-01
  5.76533036e-01  5.77893014e-01  5.88380222e-01  5.93435110e-01
  6.00247040e-01  6.03967326e-01  6.27880562e-01  6.46107487e-01
  6.80560483e-01  6.89444829e-01  7.46746898e-01  8.13463103e-01
  8.23006728e-01  8.40572453e-01  8.48274637e-01  8.54489063e-01
  8.79751141e-01  8.83238002e-01  9.04663931e-01  9.16292229e-01
  9.23643196e-01  9.33292429e-01  9.34177077e-01  9.74339499e-01
  9.78558393e-01  9.84706453e-01  1.02756625e+00  1.06552636e+00
  1.07897775e+00  1.12062889e+00  1.15902995e+00  1.20413654e+00
  1.22365539e+00  1.24114069e+00  1.36786393e+00  1.39157023e+00
  1.45148094e+00  1.45977329e+00  1.47613772e+00  1.50813973e+00
  1.51508117e+00  1.53233860e+00  1.69894098e+00  1.70977519e+00
  1.70995092e+00  1.75899243e+00  1.82341536e+00  1.83623385e+00
  1.93009378e+00  1.95843832e+00  2.05625548e+00  2.12187083e+00
  2.12347146e+00  2.16586789e+00  2.16793993e+00  2.20681649e+00
  2.21858780e+00  2.25206427e+00  2.26665574e+00  2.28190814e+00
  2.32662992e+00  2.36595276e+00  2.54053048e+00  2.55054479e+00
  2.65702453e+00  2.67994457e+00  2.69301504e+00  2.71484489e+00
  2.78133208e+00  2.78321400e+00  3.03927777e+00  3.39947096e+00]
nelec by numeric integration = 68.00003043821572
    CPU time for vxc     10.28 sec, wall time      0.38 sec
E1 = -1770.8465126669275  Ecoul = 716.5448682866239  Exc = -70.51844433552954
Extra cycle  E= -748.125983966553  delta_E= 8.41e-11  |g|= 2.36e-05  |ddm|= 4.08e-05
    CPU time for scf_cycle     92.99 sec, wall time      3.41 sec
    CPU time for SCF     92.99 sec, wall time      3.41 sec
converged SCF energy = -748.125983966553
Converting <class 'pyscf.dft.rks.RKS'> to RHF


******** <class 'pyscf.tdscf.rks.TDA'> for <class 'pyscf.dft.rks.RKS'> ********
nstates = 10 singlet
wfnsym = None
conv_tol = 1e-09
eigh lindep = 1e-12
eigh level_shift = 0
eigh max_space = 50
eigh max_cycle = 100
chkfile = /scratch/global/yangjunjie/tmpjglefpam
max_memory 256000 MB (current use 600 MB)


davidson 0 10  |r|= 0.249  e= [0.1833878  0.18480237 0.21581573 0.2212079  0.22136644 0.22881281
 0.22949835 0.27937179 0.36298361 0.37295296]  max|de|= 0.373  lindep=    1
Old state -> New state
    4     ->     3 
    3     ->     4 
davidson 1 20  |r|= 0.0479  e= [0.18057249 0.18384143 0.2116901  0.22104859 0.22105323 0.22874338
 0.22907962 0.2490437  0.30214419 0.30406266]  max|de|= -0.0689  lindep= 0.875
Old state -> New state
    9     ->     8 
    8     ->     9 
davidson 2 30  |r|= 0.0297  e= [0.18044269 0.18381387 0.21153393 0.22101381 0.22105241 0.22874171
 0.22904819 0.24877946 0.29953955 0.29996263]  max|de|= -0.00452  lindep= 0.802
davidson 3 40  |r|= 0.0477  e= [0.18044052 0.18381333 0.21152856 0.22101275 0.22105235 0.22874158
 0.22904754 0.24874343 0.2926366  0.29960195]  max|de|= -0.0069  lindep= 0.817
davidson 4 50  |r|= 0.0329  e= [0.18044046 0.18381332 0.21152841 0.22101268 0.22105235 0.22874156
 0.2290475  0.24873921 0.28692827 0.29949089]  max|de|= -0.00571  lindep= 0.759
Old state -> New state
    8     ->     9 
root 0 converged  |r|= 2.74e-06  e= 0.18044045788175153  max|de|= -8.85e-10
root 1 converged  |r|= 9.88e-07  e= 0.183813315918359  max|de|= -1.5e-10
root 4 converged  |r|= 3.07e-06  e= 0.2210523468992308  max|de|= -5.58e-10
root 5 converged  |r|= 7.58e-06  e= 0.22874156130298667  max|de|= -8.49e-10
davidson 5 60  |r|= 0.0698  e= [0.18044046 0.18381332 0.2115284  0.22101268 0.22105235 0.22874156
 0.22904749 0.24873887 0.28411238 0.28720967]  max|de|= -0.00282  lindep= 0.838
Old state -> New state
    9     ->     8 
    8     ->     9 
root 2 converged  |r|= 1.05e-06  e= 0.21152840368830308  max|de|= -4.35e-11
root 3 converged  |r|= 1.98e-06  e= 0.22101267653926812  max|de|= -1.35e-10
root 6 converged  |r|= 2.95e-06  e= 0.22904749403890756  max|de|= -2.55e-10
davidson 6 66  |r|= 0.0169  e= [0.18044046 0.18381332 0.2115284  0.22101268 0.22105235 0.22874156
 0.22904749 0.24873884 0.28053909 0.28421215]  max|de|= -0.00667  lindep= 0.863
davidson 7 69  |r|= 0.006  e= [0.18044046 0.18381332 0.2115284  0.22101268 0.22105235 0.22874156
 0.22904749 0.24873884 0.28011468 0.28414707]  max|de|= -0.000424  lindep= 0.797
root 7 converged  |r|= 6.28e-06  e= 0.24873884230973492  max|de|= 5.55e-17
davidson 8 10  |r|= 0.006  e= [0.18044046 0.18381332 0.2115284  0.22101268 0.22105235 0.22874156
 0.22904749 0.24873884 0.28011468 0.28414707]  max|de|= -2.22e-16  lindep= 0.999
davidson 9 12  |r|= 0.00333  e= [0.18044046 0.18381332 0.2115284  0.22101268 0.22105235 0.22874156
 0.22904749 0.24873884 0.28006653 0.28414109]  max|de|= -4.81e-05  lindep= 0.695
davidson 10 14  |r|= 0.000846  e= [0.18044046 0.18381332 0.2115284  0.22101268 0.22105235 0.22874156
 0.22904749 0.24873884 0.28005422 0.28413973]  max|de|= -1.23e-05  lindep= 0.888
davidson 11 16  |r|= 0.000277  e= [0.18044046 0.18381332 0.2115284  0.22101268 0.22105235 0.22874156
 0.22904749 0.24873884 0.28005322 0.2841396 ]  max|de|= -1e-06  lindep= 0.905
davidson 12 18  |r|= 0.000129  e= [0.18044046 0.18381332 0.2115284  0.22101268 0.22105235 0.22874156
 0.22904749 0.24873884 0.28005311 0.28413958]  max|de|= -1.09e-07  lindep= 0.934
davidson 13 20  |r|= 6.61e-05  e= [0.18044046 0.18381332 0.2115284  0.22101268 0.22105235 0.22874156
 0.22904749 0.24873884 0.28005309 0.28413957]  max|de|= -2e-08  lindep= 0.887
davidson 14 22  |r|= 3.24e-05  e= [0.18044046 0.18381332 0.2115284  0.22101268 0.22105235 0.22874156
 0.22904749 0.24873884 0.28005308 0.28413957]  max|de|= -5.4e-09  lindep=  0.9
root 9 converged  |r|= 1.01e-05  e= 0.2841395689312425  max|de|= -4.32e-10
davidson 15 24  |r|= 1.57e-05  e= [0.18044046 0.18381332 0.2115284  0.22101268 0.22105235 0.22874156
 0.22904749 0.24873884 0.28005308 0.28413957]  max|de|= -1.33e-09  lindep= 0.763
root 8 converged  |r|= 9.32e-06  e= 0.2800530791416588  max|de|= -4.26e-10
converged 16 25  |r|= 9.32e-06  e= [0.18044046 0.18381332 0.2115284  0.22101268 0.22105235 0.22874156
 0.22904749 0.24873884 0.28005308 0.28413957]  max|de|= -4.26e-10
    CPU time for TDA    263.13 sec, wall time      9.56 sec
Excited State energies (eV)
[4.91003495 5.0018151  5.75598105 6.01406126 6.01514074 6.22437492
 6.23269978 6.76852866 7.62063244 7.73183149]
Converting <class 'pyscf.dft.rks.RKS'> to RHF


******** <class 'pyscf.tdscf.rks.TDDFT'> for <class 'pyscf.dft.rks.RKS'> ********
nstates = 10 singlet
wfnsym = None
conv_tol = 1e-09
eigh lindep = 1e-12
eigh level_shift = 0
eigh max_space = 50
eigh max_cycle = 100
chkfile = /scratch/global/yangjunjie/tmpjglefpam
max_memory 256000 MB (current use 632 MB)


davidson 0 10  |r|= 0.392  e= [0.1833878  0.18480237 0.21581573 0.2212079  0.22136644 0.22881281
 0.22949835 0.27937179 0.36298361 0.37295296]  max|de|= 0.373  lindep=    1
Old state -> New state
    8     ->     0 
    9     ->     1 
    0     ->     2 
    1     ->     3 
    7     ->     4 
    2     ->     5 
    3     ->     6 
    4     ->     7 
    5     ->     8 
    6     ->     9 
davidson 1 20  |r|= 0.698  e= [0.07106233 0.08940195 0.17652427 0.18343206 0.20664957 0.20976405
 0.22104315 0.2210555  0.22873543 0.2289225 ]  max|de|= -0.292  lindep= 0.124
Old state -> New state
    5     ->     0 
    3     ->     1 
    1     ->     2 
    2     ->     3 
    3     ->     4 
    7     ->     6 
    6     ->     7 
davidson 2 30  |r|= 1.64  e= [0.0417644  0.06040164 0.09680257 0.17889684 0.18345818 0.20935476
 0.22083264 0.22104888 0.22873702 0.22879214]  max|de|= -0.168  lindep= 0.0357
Old state -> New state
    4     ->     1 
    3     ->     2 
    4     ->     3 
    5     ->     4 
davidson 3 40  |r|= 1.32  e= [0.0822916  0.1365139  0.17867771 0.18359233 0.20783829 0.21341023
 0.22035464 0.22104823 0.22874047 0.22884916]  max|de|= -0.0469  lindep= 0.104
Old state -> New state
    0     ->     1 
    2     ->     3 
    3     ->     4 
    4     ->     5 
davidson 4 50  |r|= 1.28  e= [0.07826175 0.11312569 0.1766375  0.17855183 0.18359123 0.20917091
 0.22087467 0.22105068 0.22873934 0.22884269]  max|de|= 0.0308  lindep= 0.0745
Old state -> New state
    3     ->     0 
    3     ->     1 
    4     ->     2 
    1     ->     3 
    5     ->     4 
    6     ->     5 
    7     ->     6 
    8     ->     7 
    9     ->     8 
    0     ->     9 
davidson 5 60  |r|=  1.1  e= [0.12933587 0.17873573 0.18359151 0.20730688 0.20943742 0.22086268
 0.22105038 0.22873912 0.22884749 0.23854386]  max|de|= 0.16  lindep= 0.111
Old state -> New state
    3     ->     0 
    9     ->     1 
    0     ->     2 
    0     ->     3 
    1     ->     4 
    2     ->     5 
    4     ->     6 
    5     ->     7 
    6     ->     8 
    7     ->     9 
davidson 6 70  |r|= 1.45  e= [0.06167106 0.0954919  0.12738809 0.14102358 0.17872998 0.18359124
 0.20932863 0.22087063 0.22105028 0.22873916]  max|de|= -0.146  lindep= 0.0648
Old state -> New state
    6     ->     0 
    4     ->     1 
    5     ->     2 
    5     ->     3 
    6     ->     4 
    7     ->     5 
    8     ->     6 
    0     ->     7 
    9     ->     8 
    0     ->     9 
davidson 7 80  |r|= 1.45  e= [0.15712925 0.17872224 0.18359717 0.18409257 0.20933743 0.22088022
 0.22105026 0.22753151 0.22873912 0.2289072 ]  max|de|= 0.167  lindep= 0.122
davidson 8 10  |r|= 1.45  e= [0.15712925 0.17872224 0.18359717 0.18409257 0.20933743 0.22088022
 0.22105026 0.22753151 0.22873912 0.2289072 ]  max|de|= 2.05e-15  lindep= 0.317
Old state -> New state
    3     ->     0 
    0     ->     1 
    1     ->     2 
    2     ->     3 
    3     ->     4 
    4     ->     5 
    5     ->     6 
    6     ->     7 
davidson 9 20  |r|= 1.42  e= [0.10885343 0.14742586 0.17872521 0.18359118 0.18703829 0.20936601
 0.2208698  0.22105027 0.22873914 0.22886077]  max|de|= -0.0752  lindep= 0.21
Old state -> New state
    4     ->     2 
    1     ->     3 
    2     ->     4 
    3     ->     5 
    5     ->     6 
    6     ->     7 
    7     ->     8 
    8     ->     9 
davidson 10 30  |r|= 1.68  e= [0.06117153 0.09647498 0.13567527 0.16003627 0.17872271 0.18359057
 0.20934838 0.22086918 0.22105027 0.22873914]  max|de|= -0.0514  lindep= 0.148
Old state -> New state
    1     ->     0 
    4     ->     1 
    6     ->     2 
    4     ->     3 
    5     ->     4 
    6     ->     5 
    7     ->     6 
    8     ->     7 
    9     ->     8 
    3     ->     9 
davidson 11 40  |r|= 1.43  e= [0.07382807 0.15147032 0.16985264 0.17872222 0.18359052 0.20932944
 0.22087008 0.22105027 0.22873913 0.22884107]  max|de|= 0.0688  lindep= 0.0682
Old state -> New state
    0     ->     2 
    1     ->     8 
    8     ->     9 
davidson 12 50  |r|= 1.26  e= [0.0707531  0.07314224 0.13597644 0.17872276 0.18359055 0.20935172
 0.22087446 0.22105027 0.22769753 0.22873913]  max|de|= -0.0783  lindep= 0.103
Old state -> New state
    3     ->     0 
    0     ->     1 
    3     ->     2 
    4     ->     3 
    5     ->     4 
    6     ->     5 
    7     ->     6 
    9     ->     7 
    2     ->     8 
    2     ->     9 
root 6 converged  |r|= 4.72e-06  e= 0.22105027171698774  max|de|= -1.16e-10
davidson 13 60  |r|= 1.52  e= [0.14806914 0.17305742 0.1787228  0.18359056 0.20935486 0.22087348
 0.22105027 0.22873913 0.22886052 0.23882506]  max|de|= 0.103  lindep= 0.14
Old state -> New state
    9     ->     0 
    0     ->     2 
    2     ->     3 
    3     ->     4 
    4     ->     5 
    4     ->     6 
    4     ->     7 
    5     ->     8 
    6     ->     9 
davidson 14 69  |r|= 1.36  e= [0.03254884 0.0887185  0.14526704 0.17872277 0.18359056 0.18900137
 0.20935151 0.21826561 0.22087261 0.22105027]  max|de|= -0.206  lindep= 0.0941
Old state -> New state
    3     ->     1 
    4     ->     2 
    6     ->     3 
    6     ->     4 
    8     ->     5 
    9     ->     6 
    7     ->     8 
    7     ->     9 
root 6 converged  |r|= 3.43e-06  e= 0.22105027009768086  max|de|= 9.32e-10
davidson 15 79  |r|= 1.17  e= [0.01954936 0.17872276 0.18359055 0.19222524 0.20935055 0.22087246
 0.22105027 0.22873913 0.22885916 0.23882502]  max|de|= 0.0206  lindep= 0.146
root 1 converged  |r|= 1.76e-06  e= 0.17872276146609586  max|de|= 4.72e-16
root 2 converged  |r|= 1.21e-06  e= 0.1835905526205761  max|de|= -1.03e-15
root 7 converged  |r|= 1.36e-06  e= 0.22873913350899294  max|de|= -2.78e-17
davidson 16 10  |r|= 1.17  e= [0.01954936 0.17872276 0.18359055 0.19222524 0.20935055 0.22087246
 0.22105027 0.22873913 0.22885916 0.23882502]  max|de|= 1.42e-15  lindep= 0.358
Old state -> New state
    9     ->     0 
    9     ->     1 
    9     ->     2 
    1     ->     3 
    2     ->     4 
    1     ->     5 
    4     ->     6 
    5     ->     7 
    6     ->     8 
    7     ->     9 
davidson 17 16  |r|= 1.46  e= [0.02285279 0.07566412 0.13122833 0.17872277 0.18359056 0.18586494
 0.20935054 0.22087307 0.22105027 0.22873913]  max|de|= -0.216  lindep= 0.304
Old state -> New state
    0     ->     1 
    3     ->     2 
    6     ->     5 
    7     ->     6 
    8     ->     7 
    9     ->     8 
    2     ->     9 
root 2 converged  |r|= 1.1e-05  e= 0.17872277289014085  max|de|= 8.06e-10
davidson 18 22  |r|= 1.26  e= [0.03044104 0.08566423 0.17872277 0.17952054 0.18359056 0.20935124
 0.22087252 0.22105027 0.22873913 0.22885841]  max|de|= 0.0976  lindep= 0.248
Old state -> New state
    2     ->     1 
    4     ->     2 
    5     ->     3 
    6     ->     4 
    7     ->     5 
    8     ->     6 
    9     ->     7 
    1     ->     8 
    1     ->     9 
davidson 19 28  |r|= 1.21  e= [0.030469   0.17872277 0.18359056 0.20933023 0.22087353 0.22105027
 0.22873913 0.22885965 0.23796066 0.32159124]  max|de|= 0.236  lindep= 0.0631
Old state -> New state
    3     ->     1 
    1     ->     2 
    2     ->     3 
    3     ->     4 
    4     ->     5 
    5     ->     6 
    6     ->     7 
    7     ->     8 
    0     ->     9 
root 2 converged  |r|= 7.13e-08  e= 0.17872276607903392  max|de|= -3.8e-10
root 3 converged  |r|= 3.15e-08  e= 0.18359055737085644  max|de|= 3.06e-11
davidson 20 34  |r|= 1.22  e= [0.02954021 0.12012756 0.17872277 0.18359056 0.2093524  0.22087183
 0.22105027 0.22873913 0.22886034 0.30380869]  max|de|= 0.273  lindep= 0.024
Old state -> New state
    0     ->     1 
    1     ->     9 
davidson 21 40  |r|= 1.24  e= [0.01640321 0.0301083  0.17872277 0.18359056 0.20935254 0.22087276
 0.22105027 0.22873913 0.22885956 0.23870841]  max|de|= 0.119  lindep= 0.0717
Old state -> New state
    2     ->     1 
    3     ->     2 
    4     ->     3 
    5     ->     4 
    6     ->     5 
    9     ->     6 
davidson 22 46  |r|= 1.15  e= [0.01986823 0.17872277 0.18359056 0.2093534  0.22087396 0.22105027
 0.22459423 0.22873913 0.22885783 0.23866338]  max|de|= -0.0141  lindep= 0.0251
Old state -> New state
    9     ->     0 
    1     ->     2 
    2     ->     3 
    3     ->     4 
    4     ->     5 
    5     ->     6 
root 6 converged  |r|= 3.75e-06  e= 0.2210502699453514  max|de|= -9.9e-10
davidson 23 53  |r|=  1.1  e= [0.07016463 0.13353591 0.17872277 0.18359056 0.2093523  0.22087282
 0.22105027 0.22873913 0.22885944 0.23848977]  max|de|= -0.168  lindep= 0.102
Old state -> New state
    2     ->     1 
    3     ->     2 
    4     ->     3 
    5     ->     4 
    6     ->     5 
    7     ->     6 
    8     ->     7 
    9     ->     8 
    1     ->     9 
root 6 converged  |r|= 2.43e-07  e= 0.22873913347102104  max|de|= -3.37e-10
davidson 24 60  |r|= 1.17  e= [0.03441401 0.17872277 0.18359056 0.20935247 0.22087279 0.22105027
 0.22873913 0.22885949 0.23863966 0.28436917]  max|de|= 0.151  lindep= 0.136
Old state -> New state
    1     ->     2 
    2     ->     3 
    3     ->     4 
    3     ->     5 
    4     ->     6 
    5     ->     7 
    6     ->     8 
    7     ->     9 
root 2 converged  |r|= 6.11e-08  e= 0.17872276670481668  max|de|= 3.36e-10
davidson 25 66  |r|= 1.25  e= [0.0276217  0.12124917 0.17872277 0.18359056 0.20250732 0.2093526
 0.2208728  0.22105027 0.22873913 0.22885949]  max|de|= -0.0575  lindep= 0.0794
Old state -> New state
    2     ->     1 
    3     ->     2 
    5     ->     3 
    6     ->     4 
    7     ->     5 
    8     ->     6 
    9     ->     7 
    1     ->     8 
    0     ->     9 
davidson 26 72  |r|= 1.26  e= [0.07799278 0.17872277 0.18359056 0.20935233 0.22087279 0.22105027
 0.22873913 0.22885951 0.23867708 0.26218864]  max|de|= 0.235  lindep= 0.118
Old state -> New state
    8     ->     0 
    0     ->     1 
    1     ->     2 
    2     ->     3 
    3     ->     4 
    4     ->     5 
    5     ->     6 
    6     ->     7 
    7     ->     8 
    8     ->     9 
davidson 27 78  |r|= 1.17  e= [0.03997433 0.07518391 0.17872277 0.18359056 0.20935246 0.2208728
 0.22105027 0.22873913 0.22885949 0.23866187]  max|de|= -0.199  lindep= 0.0674
root 4 converged  |r|= 7.09e-06  e= 0.20935246482202569  max|de|= 8.63e-15
root 5 converged  |r|= 2.03e-06  e= 0.2208727966181854  max|de|= 1.64e-15
root 8 converged  |r|= 3.96e-06  e= 0.22885948557848027  max|de|= -7.49e-16
davidson 28 10  |r|= 1.17  e= [0.03997433 0.07518391 0.17872277 0.18359056 0.20935246 0.2208728
 0.22105027 0.22873913 0.22885949 0.23866187]  max|de|= 8.63e-15  lindep= 0.276
Old state -> New state
    0     ->     1 
    1     ->     4 
    4     ->     5 
    5     ->     6 
    6     ->     7 
    7     ->     8 
    8     ->     9 
davidson 29 13  |r|=  1.3  e= [0.00196797 0.10019101 0.17872277 0.18359056 0.20111966 0.20935232
 0.22087279 0.22105027 0.22873913 0.22885949]  max|de|= 0.126  lindep= 0.216
Old state -> New state
    2     ->     1 
    3     ->     2 
    5     ->     3 
    6     ->     4 
    7     ->     5 
    8     ->     6 
    9     ->     7 
    1     ->     8 
    4     ->     9 
davidson 30 19  |r|= 1.28  e= [0.07463926 0.17872277 0.18359056 0.20935239 0.22087279 0.22105027
 0.22873913 0.22885949 0.23870316 0.3008799 ]  max|de|= 0.139  lindep= 0.292
Old state -> New state
    8     ->     0 
    0     ->     1 
    1     ->     2 
    2     ->     3 
    3     ->     4 
    3     ->     5 
    4     ->     6 
    5     ->     7 
    6     ->     8 
    7     ->     9 
davidson 31 25  |r|= 1.25  e= [0.00968025 0.07797014 0.17872277 0.18359056 0.20935226 0.2177797
 0.22087276 0.22105027 0.22873913 0.22885947]  max|de|= -0.229  lindep= 0.192
Old state -> New state
    2     ->     1 
    6     ->     5 
    7     ->     6 
    8     ->     7 
    9     ->     8 
    0     ->     9 
davidson 32 31  |r|= 1.11  e= [0.12285909 0.16366887 0.17872277 0.18359056 0.20935242 0.22087279
 0.22105027 0.22873913 0.22885949 0.23864346]  max|de|= 0.229  lindep= 0.213
root 4 converged  |r|= 6.98e-07  e= 0.20935241580736522  max|de|= 5.62e-10
root 5 converged  |r|= 2.68e-07  e= 0.22087279432075835  max|de|= 5.98e-10
root 8 converged  |r|= 5.59e-07  e= 0.22885948839945533  max|de|= 4.63e-10
davidson 33 35  |r|= 1.01  e= [0.04927085 0.15548353 0.17872277 0.18359056 0.20935242 0.22087279
 0.22105027 0.22873913 0.22885949 0.23866279]  max|de|= -0.0736  lindep= 0.159
Old state -> New state
    2     ->     1 
    3     ->     2 
    4     ->     3 
davidson 34 38  |r|= 0.873  e= [0.01482182 0.17872277 0.18359056 0.20935249 0.21891819 0.22087279
 0.22105027 0.22873913 0.22885949 0.23867002]  max|de|= -0.0344  lindep= 0.138
Old state -> New state
    5     ->     4 
    6     ->     5 
    7     ->     6 
    8     ->     7 
    9     ->     8 
davidson 35 42  |r|= 1.19  e= [0.0731469  0.17872277 0.18359056 0.20935242 0.22087279 0.22105027
 0.22873913 0.22885949 0.23640694 0.23864835]  max|de|= 0.0583  lindep= 0.221
Old state -> New state
    0     ->     1 
    1     ->     2 
    2     ->     3 
    3     ->     4 
    4     ->     5 
    4     ->     6 
    5     ->     7 
    6     ->     8 
    7     ->     9 
root 9 converged  |r|= 2.48e-06  e= 0.22885949186170795  max|de|= -7.26e-10
davidson 36 47  |r|= 1.12  e= [0.06175699 0.14720928 0.17872277 0.18359056 0.20935242 0.21874905
 0.22087277 0.22105027 0.22873913 0.22885949]  max|de|= 0.0741  lindep= 0.143
Old state -> New state
    2     ->     1 
    3     ->     2 
    4     ->     3 
    6     ->     4 
    7     ->     5 
    8     ->     6 
    9     ->     7 
    5     ->     8 
    5     ->     9 
davidson 37 51  |r|= 0.968  e= [0.04683899 0.17872277 0.18359056 0.20935241 0.22087279 0.22105027
 0.22873913 0.22885949 0.23865587 0.26587426]  max|de|= 0.0471  lindep= 0.0533
Old state -> New state
    0     ->     1 
    1     ->     2 
    2     ->     3 
    3     ->     4 
    4     ->     5 
    5     ->     6 
    6     ->     7 
    7     ->     8 
    8     ->     9 
root 4 converged  |r|= 1.94e-07  e= 0.2093524151176175  max|de|= 2.12e-10
root 5 converged  |r|= 5.9e-08  e= 0.22087279424022005  max|de|= 2.63e-11
root 8 converged  |r|= 1.51e-07  e= 0.22885948862778802  max|de|= 6.23e-11
davidson 38 54  |r|= 1.29  e= [0.04116652 0.16453081 0.17872277 0.18359056 0.20935242 0.22087279
 0.22105027 0.22873913 0.22885949 0.23865774]  max|de|= 0.118  lindep= 0.0453
Old state -> New state
    9     ->     1 
davidson 39 57  |r|= 0.965  e= [0.02599248 0.14206279 0.17872277 0.18359056 0.20935241 0.22087279
 0.22105027 0.22873913 0.22885949 0.23865429]  max|de|= -0.0966  lindep= 0.0404
Old state -> New state
    2     ->     0 
    3     ->     1 
    4     ->     2 
    5     ->     3 
    6     ->     4 
    7     ->     5 
    8     ->     6 
    9     ->     7 
    1     ->     8 
davidson 40 60  |r|= 0.456  e= [0.17872277 0.18359056 0.20935241 0.22087279 0.22105027 0.22873913
 0.22885949 0.23865792 0.27625589 0.2820448 ]  max|de|= 0.134  lindep= 0.402
Old state -> New state
    8     ->     0 
    0     ->     1 
    1     ->     2 
    2     ->     3 
    3     ->     4 
    4     ->     5 
    5     ->     6 
    6     ->     7 
    7     ->     8 
root 3 converged  |r|= 8.05e-08  e= 0.20935241428424145  max|de|= 9.55e-10
davidson 41 63  |r|= 1.24  e= [0.02945455 0.17872277 0.18359056 0.20935241 0.22087279 0.22105027
 0.22873913 0.22885949 0.23865625 0.27820485]  max|de|= -0.247  lindep= 0.143
Old state -> New state
    0     ->     1 
    8     ->     2 
    1     ->     3 
    2     ->     4 
    3     ->     5 
    4     ->     6 
    5     ->     7 
    6     ->     8 
    7     ->     9 
davidson 42 66  |r|= 1.31  e= [0.01650256 0.05367673 0.16507263 0.17872277 0.18359056 0.20935241
 0.22087279 0.22105027 0.22873913 0.22885949]  max|de|= -0.0736  lindep= 0.0746
Old state -> New state
    3     ->     0 
    4     ->     1 
    0     ->     2 
    5     ->     3 
    6     ->     4 
    7     ->     5 
    8     ->     6 
    9     ->     7 
    2     ->     8 
    1     ->     9 
davidson 43 69  |r|= 0.994  e= [0.17872277 0.18359056 0.19205085 0.20935241 0.22087279 0.22105027
 0.22873913 0.22885949 0.23865646 0.27806093]  max|de|= 0.224  lindep= 0.143
Old state -> New state
    2     ->     0 
    0     ->     1 
    1     ->     3 
    3     ->     4 
    4     ->     5 
    5     ->     6 
    6     ->     7 
    7     ->     8 
    8     ->     9 
davidson 44 72  |r|= 1.18  e= [0.06680954 0.17872277 0.18067693 0.18359056 0.20935241 0.22087279
 0.22105027 0.22873913 0.22885949 0.23865647]  max|de|= -0.125  lindep= 0.132
Old state -> New state
    3     ->     2 
    4     ->     3 
    5     ->     4 
    6     ->     5 
    7     ->     6 
    8     ->     7 
    9     ->     8 
davidson 45 75  |r|= 1.12  e= [0.06949441 0.17872277 0.18359056 0.20935241 0.22087279 0.22105027
 0.22873913 0.22885949 0.23865633 0.27640511]  max|de|= 0.0377  lindep= 0.0277
Old state -> New state
    2     ->     3 
    3     ->     4 
    4     ->     5 
    5     ->     6 
    6     ->     7 
    7     ->     8 
    8     ->     9 
root 1 converged  |r|= 2.52e-07  e= 0.1787227658032816  max|de|= -5.91e-10
davidson 46 78  |r|= 1.11  e= [0.0365566  0.17872277 0.18359056 0.18619221 0.20935241 0.22087279
 0.22105027 0.22873913 0.22885949 0.23865644]  max|de|= -0.0329  lindep= 0.0595
root 9 converged  |r|= 4.1e-06  e= 0.2386564440739861  max|de|= 1.12e-10
davidson 47 10  |r|= 1.11  e= [0.0365566  0.17872277 0.18359056 0.18619221 0.20935241 0.22087279
 0.22105027 0.22873913 0.22885949 0.23865644]  max|de|= 7.23e-10  lindep= 0.258
Old state -> New state
    9     ->     1 
    1     ->     2 
    2     ->     3 
davidson 48 12  |r|= 1.15  e= [0.03587875 0.10151872 0.17872277 0.18359056 0.20935241 0.22087279
 0.22105027 0.22873913 0.22885949 0.23865644]  max|de|= -0.137  lindep= 0.0149
Old state -> New state
    9     ->     1 
davidson 49 15  |r|= 1.17  e= [0.03407512 0.06163083 0.17872277 0.18359056 0.20935241 0.22087279
 0.22105027 0.22873913 0.22885949 0.23865643]  max|de|= -0.177  lindep= 0.0926
Old state -> New state
    4     ->     1 
davidson 50 18  |r|= 1.11  e= [0.03372359 0.13535978 0.17872277 0.18359056 0.20935241 0.22087279
 0.22105027 0.22873913 0.22885949 0.23865639]  max|de|= -0.074  lindep= 0.0212
Old state -> New state
    0     ->     1 
davidson 51 21  |r|= 1.22  e= [0.01367619 0.06233266 0.17872277 0.18359056 0.20935241 0.22087279
 0.22105027 0.22873913 0.22885949 0.23865624]  max|de|= 0.0286  lindep= 0.252
Old state -> New state
    0     ->     1 
davidson 52 24  |r|= 1.28  e= [0.0071386  0.06635559 0.17872277 0.18359056 0.20935241 0.22087279
 0.22105027 0.22873913 0.22885949 0.23865637]  max|de|= 0.0527  lindep= 0.0721
Old state -> New state
    1     ->     0 
    2     ->     1 
    3     ->     2 
    4     ->     3 
    5     ->     4 
    6     ->     5 
    7     ->     6 
    8     ->     7 
    9     ->     8 
    1     ->     9 
davidson 53 27  |r|= 1.18  e= [0.06802085 0.17872277 0.18359056 0.20935241 0.22087279 0.22105027
 0.22873913 0.22885949 0.23865639 0.32363688]  max|de|= 0.257  lindep= 0.213
Old state -> New state
    8     ->     1 
    1     ->     2 
    2     ->     3 
    3     ->     4 
    4     ->     5 
    5     ->     6 
    6     ->     7 
    7     ->     8 
    8     ->     9 
davidson 54 30  |r|= 1.15  e= [0.02459101 0.16672527 0.17872277 0.18359056 0.20935241 0.22087279
 0.22105027 0.22873913 0.22885949 0.23865634]  max|de|= -0.0719  lindep= 0.169
Old state -> New state
    2     ->     1 
    3     ->     2 
    4     ->     3 
davidson 55 33  |r|= 1.11  e= [0.01169979 0.17872277 0.18359056 0.20935241 0.21381039 0.22087279
 0.22105027 0.22873913 0.22885949 0.23865647]  max|de|= -0.0129  lindep= 0.151
Old state -> New state
    0     ->     1 
    1     ->     2 
    2     ->     3 
    3     ->     4 
davidson 56 36  |r|= 1.34  e= [0.00388863 0.0438953  0.17872277 0.18359056 0.20935241 0.22087279
 0.22105027 0.22873913 0.22885949 0.23865642]  max|de|= 0.0322  lindep= 0.166
Old state -> New state
    2     ->     0 
    2     ->     1 
    3     ->     2 
    4     ->     3 
    5     ->     4 
    6     ->     5 
    7     ->     6 
    8     ->     7 
    9     ->     8 
    1     ->     9 
root 3 converged  |r|= 4.29e-08  e= 0.20935241408883082  max|de|= 4.56e-10
root 7 converged  |r|= 7.9e-08  e= 0.22885948877143836  max|de|= 2.28e-10
davidson 57 39  |r|= 0.48  e= [0.17872277 0.1806922  0.18359056 0.20935241 0.22087279 0.22105027
 0.22873913 0.22885949 0.23865642 0.30888273]  max|de|= 0.265  lindep= 0.255
Old state -> New state
    8     ->     0 
    0     ->     1 
    3     ->     9 
davidson 58 41  |r|= 0.965  e= [0.15198236 0.17872277 0.18359056 0.20935241 0.22087279 0.22105027
 0.22873913 0.22885949 0.23865643 0.27335208]  max|de|= -0.0867  lindep= 0.0915
Old state -> New state
    0     ->     1 
    1     ->     2 
    2     ->     3 
    3     ->     4 
    4     ->     5 
    5     ->     6 
    6     ->     7 
    7     ->     8 
    8     ->     9 
root 2 converged  |r|= 5.49e-08  e= 0.17872276640323415  max|de|= 1.86e-10
davidson 59 43  |r|= 0.961  e= [0.08355882 0.15492362 0.17872277 0.18359056 0.20935241 0.22087279
 0.22105027 0.22873913 0.22885949 0.23865643]  max|de|= -0.0684  lindep= 0.102
Old state -> New state
    2     ->     1 
    3     ->     2 
    9     ->     3 
davidson 60 45  |r|= 0.882  e= [0.06258031 0.17872277 0.18359056 0.20310778 0.20935241 0.22087279
 0.22105027 0.22873913 0.22885949 0.23865644]  max|de|= -0.0355  lindep= 0.0907
Old state -> New state
    1     ->     2 
    2     ->     3 
davidson 61 47  |r|=  1.1  e= [0.02411596 0.17872278 0.17936399 0.18359056 0.20935241 0.22087279
 0.22105027 0.22873913 0.22885949 0.23865643]  max|de|= -0.0385  lindep= 0.113
Old state -> New state
    1     ->     0 
    3     ->     1 
    4     ->     2 
    5     ->     3 
    6     ->     4 
    7     ->     5 
    8     ->     6 
    9     ->     7 
    9     ->     8 
    0     ->     9 
davidson 62 49  |r|= 0.438  e= [0.17872277 0.18359056 0.20935241 0.22087279 0.22105027 0.22873913
 0.22885949 0.23865643 0.25289901 0.2786295 ]  max|de|= 0.255  lindep= 0.276
Old state -> New state
    7     ->     0 
    0     ->     1 
    1     ->     2 
    2     ->     3 
    3     ->     4 
    4     ->     5 
    7     ->     6 
    5     ->     7 
    6     ->     8 
    7     ->     9 
root 1 converged  |r|= 7.58e-08  e= 0.17872276611845248  max|de|= -3.3e-10
davidson 63 51  |r|= 1.24  e= [0.0979778  0.17872277 0.18359056 0.20935242 0.22087279 0.22105027
 0.22340399 0.22873913 0.22885949 0.23865643]  max|de|= -0.141  lindep= 0.179
Old state -> New state
    0     ->     1 
    1     ->     2 
    2     ->     3 
    3     ->     4 
    4     ->     5 
    5     ->     6 
davidson 64 54  |r|= 1.06  e= [0.03935008 0.16520816 0.17872277 0.18359056 0.20935241 0.22087279
 0.22105027 0.22873913 0.22885949 0.23865643]  max|de|= 0.0672  lindep= 0.109
Old state -> New state
    2     ->     1 
    3     ->     2 
    4     ->     3 
    5     ->     4 
    6     ->     5 
    7     ->     6 
    8     ->     7 
    9     ->     8 
    1     ->     9 
root 3 converged  |r|= 5.84e-08  e= 0.2093524140204428  max|de|= -3.75e-10
root 4 converged  |r|= 4.38e-08  e= 0.22087279410195898  max|de|= -7.34e-11
root 7 converged  |r|= 1.33e-07  e= 0.22885948860891897  max|de|= 3.46e-11
davidson 65 56  |r|= 1.18  e= [0.13922527 0.17872277 0.18359056 0.20935241 0.22087279 0.22105027
 0.22873913 0.22885949 0.23865643 0.27859439]  max|de|= 0.113  lindep= 0.114
Old state -> New state
    1     ->     2 
    2     ->     3 
    3     ->     4 
    4     ->     5 
    5     ->     6 
    6     ->     7 
    7     ->     8 
    8     ->     9 
davidson 66 58  |r|= 1.07  e= [0.0782461  0.17872277 0.18124145 0.18359056 0.20935241 0.22087279
 0.22105027 0.22873913 0.22885949 0.23865643]  max|de|= -0.061  lindep= 0.0828
Old state -> New state
    3     ->     2 
    4     ->     3 
    5     ->     4 
    6     ->     5 
    7     ->     6 
    8     ->     7 
    9     ->     8 
    2     ->     9 
davidson 67 60  |r|= 1.06  e= [0.07855188 0.17872277 0.18359056 0.20935241 0.22087279 0.22105027
 0.22873913 0.22885949 0.23865644 0.27781189]  max|de|= 0.0966  lindep= 0.00947
Old state -> New state
    1     ->     2 
    2     ->     3 
    3     ->     4 
    4     ->     5 
    5     ->     6 
    6     ->     7 
    7     ->     8 
    8     ->     9 
davidson 68 66  |r|= 1.06  e= [0.07129429 0.12939135 0.17872276 0.18359054 0.2093523  0.22087279
 0.22105027 0.22873913 0.22885948 0.23865658]  max|de|= -0.0493  lindep= 0.0353
Old state -> New state
    0     ->     1 
davidson 69 72  |r|= 1.18  e= [0.05480118 0.13033463 0.17872274 0.18359056 0.20935214 0.22087279
 0.22105027 0.22873913 0.22885947 0.23865643]  max|de|= 0.059  lindep= 0.133
Old state -> New state
    2     ->     0 
    3     ->     1 
    4     ->     2 
    5     ->     3 
    6     ->     4 
    7     ->     5 
    8     ->     6 
    9     ->     7 
    0     ->     8 
davidson 70 79  |r|=  0.8  e= [0.17872264 0.18359001 0.20935106 0.2208728  0.22105027 0.22873913
 0.22885938 0.23865851 0.2508554  0.27210492]  max|de|= 0.196  lindep= 0.14
davidson 71 10  |r|=  0.8  e= [0.17872267 0.18359034 0.20935167 0.2208728  0.22105027 0.22873913
 0.22885942 0.23865736 0.25085537 0.27210282]  max|de|= -2.1e-06  lindep= 0.564
Old state -> New state
    8     ->     0 
    8     ->     1 
    8     ->     2 
    0     ->     3 
    1     ->     4 
    2     ->     5 
    3     ->     6 
    4     ->     7 
    5     ->     8 
    6     ->     9 
davidson 72 17  |r|= 1.45  e= [0.03276875 0.08578143 0.14842579 0.17872278 0.18359059 0.20935311
 0.22087279 0.22105027 0.22873913 0.22885965]  max|de|= -0.218  lindep= 0.238
Old state -> New state
    0     ->     1 
    1     ->     2 
root 6 converged  |r|= 1.61e-07  e= 0.22087279275990754  max|de|= 1.9e-10
davidson 73 24  |r|= 1.29  e= [0.04244805 0.06588325 0.14962446 0.17872277 0.18359053 0.20935225
 0.22087279 0.22105027 0.22873913 0.22885946]  max|de|= 0.0638  lindep= 0.182
Old state -> New state
    0     ->     2 
    1     ->     3 
    3     ->     4 
    4     ->     5 
    5     ->     6 
    6     ->     7 
    7     ->     8 
    8     ->     9 
davidson 74 31  |r|= 1.45  e= [0.01217611 0.042539   0.06962249 0.126149   0.17872277 0.18359054
 0.20935211 0.22087279 0.22105027 0.22873913]  max|de|= 0.0603  lindep= 0.164
Old state -> New state
    1     ->     0 
    4     ->     2 
    5     ->     3 
    6     ->     4 
    7     ->     5 
    8     ->     6 
    9     ->     8 
    2     ->     9 
davidson 75 38  |r|= 1.09  e= [0.00556358 0.14843463 0.17872272 0.18359064 0.20935169 0.22087279
 0.22105027 0.22207892 0.22873913 0.22885959]  max|de|= 0.159  lindep= 0.133
Old state -> New state
    0     ->     1 
    2     ->     3 
    3     ->     4 
    4     ->     5 
    5     ->     6 
    6     ->     7 
    7     ->     8 
    8     ->     9 
davidson 76 47  |r|= 1.28  e= [0.020059   0.0298916  0.12256493 0.17872277 0.18359057 0.20935271
 0.22087279 0.22105027 0.22398385 0.22873913]  max|de|= -0.0562  lindep= 0.159
Old state -> New state
    0     ->     1 
    1     ->     2 
    1     ->     3 
    3     ->     4 
    4     ->     5 
    5     ->     6 
    6     ->     7 
    7     ->     8 
root 8 converged  |r|= 2.19e-07  e= 0.22105027009656625  max|de|= -3.17e-10
davidson 77 56  |r|= 1.35  e= [0.02111021 0.04722555 0.0572735  0.15153844 0.17872277 0.18359056
 0.2093524  0.22087279 0.22105027 0.22873913]  max|de|= 0.122  lindep= 0.0213
Old state -> New state
    1     ->     2 
    4     ->     3 
    5     ->     4 
    6     ->     5 
    7     ->     6 
    8     ->     7 
    9     ->     8 
    2     ->     9 
root 6 converged  |r|= 3.05e-08  e= 0.22087279408743068  max|de|= 4.78e-11
davidson 78 62  |r|= 1.36  e= [0.01521918 0.04947729 0.13084264 0.17872277 0.18359056 0.20935241
 0.22087279 0.22105027 0.22873913 0.22885949]  max|de|= 0.172  lindep= 0.0689
Old state -> New state
    0     ->     1 
    3     ->     2 
    4     ->     3 
    5     ->     4 
    6     ->     5 
    7     ->     6 
    8     ->     7 
    9     ->     8 
    1     ->     9 
root 2 converged  |r|= 3.37e-07  e= 0.1787227684712191  max|de|= -4.34e-10
davidson 79 68  |r|= 1.35  e= [0.01679083 0.06207604 0.17872277 0.18359055 0.20935243 0.22087279
 0.22105027 0.22873913 0.22885949 0.23865639]  max|de|= 0.189  lindep= 0.0106
Old state -> New state
    2     ->     0 
    3     ->     1 
    4     ->     2 
    5     ->     3 
    5     ->     4 
    6     ->     5 
    7     ->     6 
    8     ->     7 
    9     ->     8 
davidson 80 74  |r|= 0.854  e= [0.17872277 0.18359059 0.20935242 0.21562708 0.22087279 0.22105027
 0.22873913 0.22885946 0.23865715 0.24087748]  max|de|= -0.00525  lindep= 0.149
Old state -> New state
    9     ->     0 
    0     ->     1 
    1     ->     2 
    2     ->     4 
    4     ->     5 
    5     ->     6 
    6     ->     7 
    7     ->     8 
    8     ->     9 
davidson 81 80  |r|= 1.46  e= [0.03262837 0.17872277 0.18359057 0.20451687 0.20935237 0.22087279
 0.22105027 0.22873913 0.22885949 0.23865645]  max|de|= -0.208  lindep= 0.111
root 1 converged  |r|= 6.62e-07  e= 0.17872276555677113  max|de|= 2.3e-15
root 2 converged  |r|= 8.11e-06  e= 0.183590568467859  max|de|= 2.78e-16
root 4 converged  |r|= 2.75e-05  e= 0.20935236826888068  max|de|= -2.94e-13
root 8 converged  |r|= 2.63e-06  e= 0.22885949147813678  max|de|= 3.8e-14
root 9 converged  |r|= 1.73e-06  e= 0.2386564532255436  max|de|= -1.89e-12
davidson 82 10  |r|= 1.46  e= [0.03262837 0.17872277 0.18359057 0.20451687 0.20935237 0.22087279
 0.22105027 0.22873913 0.22885949 0.23865645]  max|de|= -1.89e-12  lindep= 0.354
Old state -> New state
    4     ->     3 
    5     ->     4 
    6     ->     5 
    7     ->     6 
    8     ->     7 
    9     ->     8 
    3     ->     9 
davidson 83 12  |r|= 1.78  e= [0.08434894 0.17872277 0.18359055 0.20935243 0.22087279 0.22105027
 0.22873913 0.22885949 0.23865645 0.38093402]  max|de|= 0.176  lindep= 0.301
Old state -> New state
    0     ->     1 
    1     ->     2 
    2     ->     3 
    3     ->     4 
    4     ->     5 
    5     ->     6 
    6     ->     7 
    7     ->     8 
    8     ->     9 
davidson 84 17  |r|= 1.54  e= [0.02115161 0.07023899 0.17872277 0.18359055 0.20935242 0.22087279
 0.22105027 0.22873913 0.22885949 0.23865644]  max|de|= -0.0632  lindep= 0.218
Old state -> New state
    9     ->     1 
    9     ->     2 
    2     ->     3 
    2     ->     4 
    3     ->     5 
    4     ->     6 
    5     ->     7 
    6     ->     8 
    7     ->     9 
davidson 85 23  |r|= 1.22  e= [0.06739399 0.09569348 0.1270348  0.16764858 0.17872276 0.18359054
 0.20935246 0.22087279 0.22105027 0.22873913]  max|de|= -0.143  lindep= 0.194
Old state -> New state
    4     ->     1 
    5     ->     2 
    6     ->     3 
    6     ->     4 
    7     ->     5 
    8     ->     6 
    9     ->     7 
    1     ->     8 
    2     ->     9 
davidson 86 29  |r|= 1.32  e= [0.06197464 0.17872277 0.18359056 0.20935244 0.2162424  0.22087279
 0.22105027 0.22873913 0.22885949 0.23865643]  max|de|= 0.133  lindep= 0.0982
Old state -> New state
    9     ->     0 
    0     ->     1 
    1     ->     2 
    2     ->     3 
    3     ->     4 
root 2 converged  |r|= 2.99e-08  e= 0.17872276661805314  max|de|= -3e-10
root 3 converged  |r|= 3.04e-07  e= 0.18359055639324023  max|de|= -6.64e-10
root 8 converged  |r|= 4.14e-07  e= 0.2288594856535346  max|de|= -3.73e-10
davidson 87 33  |r|= 1.27  e= [0.03028909 0.05604426 0.17872277 0.18359056 0.20935241 0.22087279
 0.22105027 0.22873913 0.22885949 0.23865641]  max|de|= -0.208  lindep= 0.0502
Old state -> New state
    9     ->     1 
davidson 88 35  |r|=  1.3  e= [0.02806854 0.17343544 0.17872277 0.18359056 0.2093524  0.22087279
 0.22105027 0.22873913 0.22885948 0.2386564 ]  max|de|= -0.0652  lindep= 0.0151
Old state -> New state
    2     ->     0 
    2     ->     1 
    3     ->     2 
    2     ->     3 
davidson 89 38  |r|= 1.33  e= [0.13504209 0.17872277 0.18359056 0.19568534 0.20935241 0.22087279
 0.22105027 0.22873913 0.22885949 0.23865644]  max|de|= -0.0437  lindep= 0.202
Old state -> New state
    3     ->     1 
    1     ->     2 
    2     ->     3 
root 3 converged  |r|= 3.2e-07  e= 0.18359055679203543  max|de|= -2.77e-10
root 4 converged  |r|= 3.07e-07  e= 0.2093524140458005  max|de|= 7.92e-10
root 8 converged  |r|= 3.91e-07  e= 0.22885948822583407  max|de|= -2.88e-10
davidson 90 40  |r|= 1.51  e= [0.06677803 0.12120036 0.17872277 0.18359056 0.20935241 0.22087279
 0.22105027 0.22873913 0.22885949 0.23865643]  max|de|= -0.0745  lindep= 0.126
Old state -> New state
    2     ->     1 
    3     ->     2 
    4     ->     3 
    5     ->     4 
    6     ->     5 
    7     ->     6 
    8     ->     7 
    9     ->     8 
davidson 91 42  |r|= 1.24  e= [0.16926783 0.17872277 0.18359056 0.20935241 0.22087279 0.22105027
 0.22873913 0.22885949 0.23865642 0.27331839]  max|de|= 0.102  lindep= 0.156
Old state -> New state
    8     ->     1 
    1     ->     2 
    2     ->     3 
    3     ->     4 
    4     ->     5 
    5     ->     6 
    6     ->     7 
    7     ->     8 
    8     ->     9 
davidson 92 44  |r|= 1.36  e= [0.02712799 0.11733821 0.17872277 0.18359056 0.20935241 0.22087279
 0.22105027 0.22873913 0.22885949 0.23865643]  max|de|= -0.142  lindep= 0.0813
Old state -> New state
    0     ->     1 
root 4 converged  |r|= 2.62e-07  e= 0.20935241436503305  max|de|= 7.91e-10
root 8 converged  |r|= 4.44e-07  e= 0.22885948889063495  max|de|= 6.84e-10
davidson 93 46  |r|= 1.41  e= [0.02449107 0.06851271 0.17872277 0.18359056 0.20935241 0.22087279
 0.22105027 0.22873913 0.22885949 0.23865641]  max|de|= 0.0414  lindep= 0.0348
Old state -> New state
    2     ->     1 
    3     ->     2 
    4     ->     3 
    5     ->     4 
    6     ->     5 
    7     ->     6 
    8     ->     7 
    9     ->     8 
davidson 94 48  |r|= 1.15  e= [0.03023461 0.17872277 0.18359056 0.20935241 0.22087279 0.22105027
 0.22873913 0.22885949 0.23865641 0.30581854]  max|de|= 0.0672  lindep= 0.0381
Old state -> New state
    0     ->     1 
    1     ->     2 
    2     ->     3 
    3     ->     4 
    4     ->     5 
    5     ->     6 
    6     ->     7 
    7     ->     8 
    8     ->     9 
davidson 95 50  |r|= 1.46  e= [0.00875245 0.15622606 0.17872277 0.18359056 0.20935241 0.22087279
 0.22105027 0.22873913 0.22885949 0.23865642]  max|de|= 0.126  lindep= 0.139
Old state -> New state
    2     ->     1 
    3     ->     2 
    4     ->     3 
    5     ->     4 
    6     ->     5 
    7     ->     6 
    8     ->     7 
    9     ->     8 
davidson 96 52  |r|= 1.01  e= [0.12176123 0.17872277 0.18359056 0.20935241 0.22087279 0.22105027
 0.22873913 0.22885949 0.23865643 0.2862783 ]  max|de|= 0.113  lindep= 0.108
Old state -> New state
    0     ->     1 
    1     ->     2 
    2     ->     3 
    3     ->     4 
    4     ->     5 
    5     ->     6 
    6     ->     7 
    7     ->     8 
    8     ->     9 
davidson 97 54  |r|= 1.18  e= [0.10527326 0.11923784 0.17872277 0.18359056 0.20935241 0.22087279
 0.22105027 0.22873913 0.22885949 0.23865643]  max|de|= -0.0165  lindep= 0.0385
Old state -> New state
    2     ->     1 
    3     ->     2 
    4     ->     3 
    5     ->     4 
    6     ->     5 
    7     ->     6 
    8     ->     7 
    9     ->     8 
    1     ->     9 
davidson 98 56  |r|= 1.08  e= [0.06585412 0.17872277 0.18359056 0.20935241 0.22087279 0.22105027
 0.22873913 0.22885949 0.23865642 0.28717682]  max|de|= 0.168  lindep= 0.0514
Old state -> New state
    2     ->     3 
    3     ->     4 
    4     ->     5 
    5     ->     6 
    6     ->     7 
    7     ->     8 
    8     ->     9 
davidson 99 58  |r|= 1.13  e= [0.06307572 0.17872277 0.18309283 0.18359055 0.20935242 0.22087279
 0.22105027 0.22873913 0.22885949 0.23865643]  max|de|= -0.00278  lindep= 0.0175
    CPU time for TDDFT   1526.81 sec, wall time     54.83 sec
TD-SCF states [0, 2, 3, 9] not converged.
Excited State energies (eV)
[1.7163778  4.8632942  4.98220963 4.99575331 5.69676938 6.01025486
 6.01508423 6.22430886 6.22758389 6.4941722 ]
