 
:: initializing oneAPI environment ...
   slurm_script: BASH_VERSION = 4.2.46(1)-release
   args: Using "$@" for setvars.sh arguments: --force
:: advisor -- latest
:: ccl -- latest
:: clck -- latest
:: compiler -- latest
:: dal -- latest
:: debugger -- latest
:: dev-utilities -- latest
:: dnnl -- latest
:: dpcpp-ct -- latest
:: dpl -- latest
:: inspector -- latest
:: intelpython -- latest
:: ipp -- latest
:: ippcp -- latest
:: ipp -- latest
:: itac -- latest
:: mkl -- latest
:: mpi -- latest
:: tbb -- latest
:: vpl -- latest
:: vtune -- latest
:: oneAPI environment initialized ::
 
SLURM_CPUS_PER_TASK = 28
SLURM_MEM_PER_NODE = 256000
#INFO: **** input file is /home/yangjunjie/work/py-ch3-cl/work/step_-22/main.py ****
import sys
import pyscf
from pyscf import tdscf

def main(xyz_file, basis="631g*", xc="b3lyp", output="ene.out"):
    xyz = None

    with open(xyz_file, "r") as xyz:
        xyz = xyz.readlines()[2:]
        xyz = "".join(xyz)

    mol = pyscf.gto.Mole()
    mol.atom = xyz
    mol.basis = basis
    mol.verbose = 5
    mol.build()

    if xc is not None and xc != "hf":
        mf = pyscf.scf.RKS(mol)
        mf.xc = xc
        mf.kernel()
    else:
        mf = pyscf.scf.RHF(mol)
        mf.kernel()

    ene_mf = mf.e_tot

    tda = pyscf.tdscf.TDA(mf)
    tda.nstates = 10
    tda.kernel()
    ene_tda = tda.e[:5]
    dip_tda = tda.transition_dipole()[:5]

    rpa = pyscf.tdscf.RPA(mf)
    rpa.nstates = 10
    rpa.kernel()
    ene_rpa = rpa.e[:5]
    dip_rpa = rpa.transition_dipole()[:5]

    with open(output, "w") as f:
        f.write(f"RKS energy: {ene_mf: 12.8f}\n")
        f.write("TDA results:\n")
        for i, (ene, dip) in enumerate(zip(ene_tda, dip_tda)):
            f.write(f" {i:2d} {ene: 12.8f} {dip[0]: 12.8f} {dip[1]: 12.8f} {dip[2]: 12.8f}\n")
        
        f.write("\nRPA results:\n")
        for i, (ene, dip) in enumerate(zip(ene_rpa, dip_rpa)):
            f.write(f" {i:2d} {ene: 12.8f} {dip[0]: 12.8f} {dip[1]: 12.8f} {dip[2]: 12.8f}\n")

if __name__ == "__main__":
    xyz = sys.argv[1]
    main(xyz, basis="631g*", xc="b3lyp", output="out.log")
#INFO: ******************** input file end ********************


System: uname_result(system='Linux', node='pauling001', release='3.10.0-327.36.3.el7.x86_64', version='#1 SMP Thu Oct 20 04:56:07 EDT 2016', machine='x86_64')  Threads 28
Python 3.9.7 (default, Oct 27 2021, 01:23:21) 
[GCC 9.3.0]
numpy 1.21.2  scipy 1.6.2
Date: Tue Sep 27 23:11:22 2022
PySCF version 2.0.1
PySCF path  /home/yangjunjie/packages/pyscf/pyscf-main
GIT ORIG_HEAD 14b880cdc4bf7bb64f3989a147c0b04622efc498
GIT HEAD (branch master) 9d5b5bd309d1cc55fbd1a0ec76e26b5b0c7f76af

[ENV] PYSCF_MAX_MEMORY 256000
[ENV] PYSCF_TMPDIR /scratch/global/yangjunjie/
[CONFIG] conf_file /home/yangjunjie/.pyscf_conf.py
[INPUT] verbose = 5
[INPUT] max_memory = 256000 
[INPUT] num. atoms = 16
[INPUT] num. electrons = 68
[INPUT] charge = 0
[INPUT] spin (= nelec alpha-beta = 2S) = 0
[INPUT] symmetry False subgroup None
[INPUT] Mole.unit = angstrom
[INPUT]  1 C      0.000000010000   1.143711030000   1.175997560000 AA    0.000000018897   2.161300612344   2.222313311557 Bohr
[INPUT]  2 C      0.000000000000   1.198994450000   2.567495560000 AA    0.000000000000   2.265771135374   4.851863434437 Bohr
[INPUT]  3 C     -0.000000010000  -0.013698360000   3.263342050000 AA   -0.000000018897  -0.025886148756   6.166822725277 Bohr
[INPUT]  4 C     -0.000000010000  -1.212660490000   2.543094110000 AA   -0.000000018897  -2.291596208181   4.805751376895 Bohr
[INPUT]  5 C      0.000000000000  -1.128335160000   1.151348090000 AA    0.000000000000  -2.132244429117   2.175732564141 Bohr
[INPUT]  6 N      0.000000010000   0.015510780000   0.486006990000 AA    0.000000018897   0.029311126178   0.918420105724 Bohr
[INPUT]  7 C      0.000000000000   0.004934540000  -2.245870310000 AA    0.000000000000   0.009324929151  -4.244079797192 Bohr
[INPUT]  8 H      0.000000020000   2.072661040000   0.589691720000 AA    0.000000037795   3.916761714656   1.114355848724 Bohr
[INPUT]  9 H      0.000000000000   2.142601060000   3.082889760000 AA    0.000000000000   4.048929197603   5.825817318626 Bohr
[INPUT] 10 H     -0.000000020000  -0.025179720000   4.342196040000 AA   -0.000000037795  -0.047582774693   8.205561294771 Bohr
[INPUT] 11 H     -0.000000020000  -2.165924380000   3.037825180000 AA   -0.000000037795  -4.093003884718   5.740657604508 Bohr
[INPUT] 12 H      0.000000000000  -2.043466910000   0.546135940000 AA    0.000000000000  -3.861592804511   1.032047353382 Bohr
[INPUT] 13 H     -0.000000030000   1.036525240000  -1.913172540000 AA   -0.000000056692   1.958748824799  -3.615372129638 Bohr
[INPUT] 14 H     -0.891473680000  -0.502453830000  -1.894029270000 AA   -1.684641102458  -0.949500128939  -3.579196592210 Bohr
[INPUT] 15 H      0.891473710000  -0.502453790000  -1.894029270000 AA    1.684641159150  -0.949500053350  -3.579196592210 Bohr
[INPUT] 16 Cl    -0.000000010000  -0.012502890000  -4.065176080000 AA   -0.000000018897  -0.023627037866  -7.682069439333 Bohr
[INPUT] ---------------- BASIS SET ---------------- 
[INPUT] l, kappa, [nprim/nctr], expnt,             c_1 c_2 ...
[INPUT] H
[INPUT] 0    0    [3    /1   ]  18.731137         0.0334946
                                2.8253937         0.23472695
                                0.6401217         0.81375733
[INPUT] 0    0    [1    /1   ]  0.1612778            1
[INPUT] Cl
[INPUT] 0    0    [6    /1   ]  25180.1           0.001833
                                3780.35           0.014034
                                860.474           0.069097
                                242.145           0.237452
                                77.3349           0.483034
                                26.247            0.339856
[INPUT] 0    0    [6    /1   ]  491.765           -0.0022974
                                116.984           -0.030714
                                37.4153           -0.112528
                                13.7834           0.045016
                                5.45215           0.589353
                                2.22588           0.465206
[INPUT] 0    0    [3    /1   ]  3.18649           -0.25183
                                1.14427           0.061589
                                0.420377          1.06018
[INPUT] 0    0    [1    /1   ]  0.142657             1
[INPUT] 1    0    [6    /1   ]  491.765           0.0039894
                                116.984           0.030318
                                37.4153           0.12988
                                13.7834           0.327951
                                5.45215           0.453527
                                2.22588           0.252154
[INPUT] 1    0    [3    /1   ]  3.18649           -0.014299
                                1.14427           0.323572
                                0.420377          0.743507
[INPUT] 1    0    [1    /1   ]  0.142657             1
[INPUT] 2    0    [1    /1   ]  0.75                 1
[INPUT] C
[INPUT] 0    0    [6    /1   ]  3047.5249         0.0018347
                                457.36951         0.0140373
                                103.94869         0.0688426
                                29.210155         0.2321844
                                9.286663          0.4679413
                                3.163927          0.362312
[INPUT] 0    0    [3    /1   ]  7.8682724         -0.1193324
                                1.8812885         -0.1608542
                                0.5442493         1.1434564
[INPUT] 0    0    [1    /1   ]  0.1687144            1
[INPUT] 1    0    [3    /1   ]  7.8682724         0.0689991
                                1.8812885         0.316424
                                0.5442493         0.7443083
[INPUT] 1    0    [1    /1   ]  0.1687144            1
[INPUT] 2    0    [1    /1   ]  0.8                  1
[INPUT] N
[INPUT] 0    0    [6    /1   ]  4173.511          0.0018348
                                627.4579          0.013995
                                142.9021          0.068587
                                40.23433          0.232241
                                12.82021          0.46907
                                4.390437          0.360455
[INPUT] 0    0    [3    /1   ]  11.626358         -0.114961
                                2.71628           -0.169118
                                0.772218          1.145852
[INPUT] 0    0    [1    /1   ]  0.2120313            1
[INPUT] 1    0    [3    /1   ]  11.626358         0.06758
                                2.71628           0.323907
                                0.772218          0.740895
[INPUT] 1    0    [1    /1   ]  0.2120313            1
[INPUT] 2    0    [1    /1   ]  0.8                  1

nuclear repulsion = 372.504146661134
number of shells = 66
number of NR pGTOs = 272
number of NR cGTOs = 132
basis = 631g*
ecp = {}
CPU time:         0.39


******** <class 'pyscf.dft.rks.RKS'> ********
method = RKS
initial guess = minao
damping factor = 0
level_shift factor = 0
DIIS = <class 'pyscf.scf.diis.CDIIS'>
diis_start_cycle = 1
diis_space = 8
SCF conv_tol = 1e-09
SCF conv_tol_grad = None
SCF max_cycles = 50
direct_scf = True
direct_scf_tol = 1e-13
chkfile to save SCF result = /scratch/global/yangjunjie/tmpgxx0ctak
max_memory 256000 MB (current use 81 MB)
XC library pyscf.dft.libxc version 5.2.0
    S. Lehtola, C. Steigemann, M. J. Oliveira, and M. A. Marques, SoftwareX 7, 1 (2018)
XC functionals = b3lyp
    P. A. M. Dirac, Math. Proc. Cambridge Philos. Soc. 26, 376 (1930)
    F. Bloch, Z. Phys. 57, 545 (1929)
    A. D. Becke, Phys. Rev. A 38, 3098 (1988)
    C. Lee, W. Yang, and R. G. Parr, Phys. Rev. B 37, 785 (1988)
    B. Miehlich, A. Savin, H. Stoll, and H. Preuss, Chem. Phys. Lett. 157, 200 (1989)
    S. H. Vosko, L. Wilk, and M. Nusair, Can. J. Phys. 58, 1200 (1980)
radial grids: 
    Treutler-Ahlrichs [JCP 102, 346 (1995); DOI:10.1063/1.469408] (M4) radial grids
    
becke partition: Becke, JCP 88, 2547 (1988); DOI:10.1063/1.454033
pruning grids: <function nwchem_prune at 0x7f3099fdeee0>
grids dens level: 3
symmetrized grids: False
atomic radii adjust function: <function treutler_atomic_radii_adjust at 0x7f3099fdee50>
small_rho_cutoff = 1e-07
Set gradient conv threshold to 3.16228e-05
atom C rad-grids = 75, ang-grids = [ 50  50  50  50  50  50  50  50  50  50  50  50  50  50  50  50  50  50
  50  50  50  50  50  86  86  86  86  86  86  86  86  86  86 266 266 266
 266 266 266 266 302 302 302 302 302 302 302 302 302 302 302 302 302 302
 302 302 302 302 302 302 266 266 266 266 266 266 266 266 266 266 266 266
 266 266 266]
atom N rad-grids = 75, ang-grids = [ 50  50  50  50  50  50  50  50  50  50  50  50  50  50  50  50  50  50
  50  50  50  50  50  86  86  86  86  86  86  86  86  86 266 266 266 266
 266 266 266 302 302 302 302 302 302 302 302 302 302 302 302 302 302 302
 302 302 302 302 266 266 266 266 266 266 266 266 266 266 266 266 266 266
 266 266 266]
atom H rad-grids = 50, ang-grids = [ 50  50  50  50  50  50  50  50  50  50  50  50  50  50  86  86  86  86
 266 266 266 266 302 302 302 302 302 302 302 302 302 302 302 302 302 266
 266 266 266 266 266 266 266 266 266 266 266 266 266 266]
atom Cl rad-grids = 80, ang-grids = [ 50  50  50  50  50  50  50  50  50  50  50  50  50  50  50  50  50  50
  50  50  50  50  50  50  86  86  86  86  86  86  86  86  86  86  86  86
  86 350 350 350 350 350 350 350 350 350 434 434 434 434 434 434 434 434
 434 434 434 434 434 434 434 434 434 434 350 350 350 350 350 350 350 350
 350 350 350 350 350 350 350 350]
tot grids = 196530
Drop grids 32889
    CPU time for setting up grids      3.05 sec, wall time      0.13 sec
nelec by numeric integration = 67.97617762003546
    CPU time for vxc      5.84 sec, wall time      0.21 sec
E1 = -1758.2077424556699  Ecoul = 707.0477911007581  Exc = -70.37107605510985
init E= -749.026880748888
cond(S) = 6064.574426079817
    CPU time for initialize scf     15.56 sec, wall time      0.64 sec
  HOMO = -0.293283001103915  LUMO = -0.0981447550489576
  mo_energy =
[-1.01597219e+02 -1.44094230e+01 -1.02910486e+01 -1.02904674e+01
 -1.02892821e+01 -1.02889299e+01 -1.02853268e+01 -1.02848979e+01
 -9.53820108e+00 -7.29409926e+00 -7.29288312e+00 -7.29288263e+00
 -1.10343632e+00 -9.37550030e-01 -9.31405944e-01 -8.84336658e-01
 -7.56908545e-01 -7.11570853e-01 -7.04495955e-01 -5.76524897e-01
 -5.30577212e-01 -5.11435259e-01 -4.73202079e-01 -4.72564074e-01
 -4.62456593e-01 -4.58450918e-01 -4.37825610e-01 -4.32880046e-01
 -3.93953386e-01 -3.43516825e-01 -3.42824136e-01 -3.26046084e-01
 -3.02030881e-01 -2.93283001e-01 -9.81447550e-02 -7.88320997e-02
 -3.67562729e-02  5.20986673e-02  6.86925407e-02  7.83992264e-02
  9.00594937e-02  1.12849960e-01  1.21260510e-01  1.22347606e-01
  1.44151649e-01  1.60935575e-01  1.95895627e-01  2.40928835e-01
  2.55323816e-01  2.62283255e-01  3.59744333e-01  3.82311346e-01
  4.04066256e-01  4.15222919e-01  4.15230201e-01  4.21639082e-01
  4.65755545e-01  4.75070271e-01  4.87994951e-01  5.04632819e-01
  5.22179925e-01  5.37134660e-01  5.41505649e-01  5.49687422e-01
  5.53795871e-01  5.54426838e-01  5.55458096e-01  6.07800900e-01
  6.21345169e-01  6.38737141e-01  6.66353888e-01  7.63394805e-01
  7.72013448e-01  7.84616589e-01  7.86698850e-01  7.91556598e-01
  7.98692269e-01  8.00649385e-01  8.29294655e-01  8.44253554e-01
  8.49530593e-01  8.62932747e-01  8.79633256e-01  8.97213624e-01
  9.00788881e-01  9.19243775e-01  9.83049524e-01  1.00034446e+00
  1.03668251e+00  1.07392733e+00  1.12338153e+00  1.13424635e+00
  1.15907691e+00  1.17867948e+00  1.30820225e+00  1.34167687e+00
  1.39639396e+00  1.39824046e+00  1.41119132e+00  1.41807403e+00
  1.44551619e+00  1.45966554e+00  1.62374056e+00  1.62458953e+00
  1.63821430e+00  1.70435088e+00  1.74838252e+00  1.77184021e+00
  1.87119909e+00  1.89203062e+00  1.98241863e+00  2.05511732e+00
  2.06086227e+00  2.09866127e+00  2.10754504e+00  2.12813868e+00
  2.14456418e+00  2.16565888e+00  2.17955350e+00  2.22327107e+00
  2.24429242e+00  2.31100942e+00  2.47679585e+00  2.48352600e+00
  2.56925788e+00  2.61419240e+00  2.62449615e+00  2.63694839e+00
  2.69883777e+00  2.71356766e+00  2.96078960e+00  3.31180745e+00]
nelec by numeric integration = 68.00002281461538
    CPU time for vxc      5.84 sec, wall time      0.21 sec
E1 = -1766.2422006100533  Ecoul = 716.4639503829851  Exc = -70.81395923681404
cycle= 1 E= -748.088062802749  delta_E= 0.939  |g|= 0.379  |ddm|= 3.93
    CPU time for cycle= 1      6.33 sec, wall time      0.23 sec
  HOMO = -0.197733688805209  LUMO = 0.0126834780417695
  mo_energy =
[-1.01362077e+02 -1.41889679e+01 -1.01870455e+01 -1.01860194e+01
 -1.01549847e+01 -1.01333825e+01 -1.00943874e+01 -1.00938266e+01
 -9.31744809e+00 -7.07848462e+00 -7.06840469e+00 -7.06839691e+00
 -8.98386834e-01 -7.79079818e-01 -7.58251079e-01 -7.30577719e-01
 -6.21711091e-01 -5.99563300e-01 -5.99423331e-01 -5.09130565e-01
 -4.56978126e-01 -4.37136992e-01 -4.09984707e-01 -4.05015092e-01
 -4.02866985e-01 -3.75654295e-01 -3.63952448e-01 -3.41723772e-01
 -3.37421759e-01 -2.48475899e-01 -2.35399598e-01 -2.30002715e-01
 -2.29409262e-01 -1.97733689e-01  1.26834780e-02  1.59717722e-02
  7.96399055e-02  1.08602405e-01  1.31706609e-01  1.38216392e-01
  1.60219735e-01  1.66696816e-01  1.78071242e-01  1.84162426e-01
  1.84239801e-01  2.10992901e-01  2.76423427e-01  3.14148707e-01
  3.42577295e-01  3.48451013e-01  4.65396126e-01  4.65958348e-01
  4.78411682e-01  5.12191993e-01  5.12370219e-01  5.14752893e-01
  5.35397385e-01  5.63161391e-01  5.69936173e-01  5.92532321e-01
  6.01556002e-01  6.04909814e-01  6.18364109e-01  6.22528725e-01
  6.28221915e-01  6.32751079e-01  6.58850302e-01  6.76375115e-01
  7.13167181e-01  7.17253380e-01  7.53558329e-01  8.29382601e-01
  8.46953785e-01  8.69032583e-01  8.74858923e-01  8.83344512e-01
  9.11777808e-01  9.27060123e-01  9.32899293e-01  9.47171773e-01
  9.52179115e-01  9.73163232e-01  9.77376613e-01  9.96905370e-01
  1.01331454e+00  1.01784194e+00  1.06805729e+00  1.08882346e+00
  1.10129115e+00  1.14133678e+00  1.18141017e+00  1.23415626e+00
  1.24051730e+00  1.28965407e+00  1.41147610e+00  1.41955992e+00
  1.47280450e+00  1.49271365e+00  1.51098078e+00  1.51771845e+00
  1.55472855e+00  1.56113456e+00  1.73419730e+00  1.73450236e+00
  1.73627336e+00  1.80401190e+00  1.86931176e+00  1.88039092e+00
  1.97600239e+00  1.99491714e+00  2.09747928e+00  2.16687603e+00
  2.17374247e+00  2.21444617e+00  2.21528515e+00  2.24059978e+00
  2.25676864e+00  2.26889099e+00  2.28219966e+00  2.33131215e+00
  2.36571638e+00  2.42171069e+00  2.58264206e+00  2.59661877e+00
  2.69836418e+00  2.72724116e+00  2.74245905e+00  2.76552627e+00
  2.83256370e+00  2.83918477e+00  3.09355657e+00  3.44336346e+00]
nelec by numeric integration = 68.00002069547861
    CPU time for vxc      6.11 sec, wall time      0.22 sec
E1 = -1758.8374547827837  Ecoul = 708.4771628563669  Exc = -70.23312981776114
cycle= 2 E= -748.089275083044  delta_E= -0.00121  |g|=  0.4  |ddm|= 0.972
    CPU time for cycle= 2      6.61 sec, wall time      0.24 sec
  HOMO = -0.264005277894196  LUMO = -0.0308806628413148
  mo_energy =
[-1.01472445e+02 -1.43570846e+01 -1.02133834e+01 -1.02128993e+01
 -1.02031854e+01 -1.01970002e+01 -1.01967032e+01 -1.01965892e+01
 -9.40699673e+00 -7.16991293e+00 -7.16008494e+00 -7.16007585e+00
 -9.61447154e-01 -8.13862129e-01 -8.10756460e-01 -7.68878367e-01
 -6.48948238e-01 -6.41478754e-01 -6.31780909e-01 -5.35953386e-01
 -4.87376090e-01 -4.79367184e-01 -4.37387405e-01 -4.22051126e-01
 -4.19765427e-01 -4.13105617e-01 -4.07913691e-01 -3.75871118e-01
 -3.72300247e-01 -2.97584353e-01 -2.68804250e-01 -2.66099894e-01
 -2.65673556e-01 -2.64005278e-01 -3.08806628e-02 -1.67062960e-02
  5.67338789e-02  9.14940792e-02  1.22357257e-01  1.28439134e-01
  1.40116295e-01  1.49527408e-01  1.57261245e-01  1.72541768e-01
  1.76502465e-01  2.02908753e-01  2.47265261e-01  2.89476700e-01
  3.14403542e-01  3.16838128e-01  4.35193304e-01  4.42045401e-01
  4.48831481e-01  4.84090185e-01  4.86193726e-01  4.86444987e-01
  5.07246067e-01  5.28628005e-01  5.49073393e-01  5.70409835e-01
  5.79404437e-01  5.79512991e-01  5.90608115e-01  5.92306728e-01
  5.94311174e-01  6.05325461e-01  6.18284729e-01  6.48839255e-01
  6.80727542e-01  6.88180313e-01  7.23824228e-01  8.14390316e-01
  8.26352621e-01  8.38832475e-01  8.44619204e-01  8.47828652e-01
  8.85465279e-01  8.87983280e-01  9.09865675e-01  9.14609903e-01
  9.26069503e-01  9.37309863e-01  9.37439434e-01  9.73134590e-01
  9.79216131e-01  9.80583815e-01  1.03135759e+00  1.06475999e+00
  1.07851820e+00  1.11521802e+00  1.16117458e+00  1.20204505e+00
  1.20592029e+00  1.24302484e+00  1.36986699e+00  1.38752138e+00
  1.45043473e+00  1.46123418e+00  1.46218743e+00  1.47750347e+00
  1.50786200e+00  1.51850782e+00  1.69268279e+00  1.71206833e+00
  1.71236128e+00  1.76592122e+00  1.82278906e+00  1.83396555e+00
  1.93392298e+00  1.95919293e+00  2.05518167e+00  2.12521489e+00
  2.12862989e+00  2.16656110e+00  2.17402389e+00  2.21015372e+00
  2.21529158e+00  2.25130637e+00  2.26369291e+00  2.29217443e+00
  2.31583246e+00  2.37499205e+00  2.54328243e+00  2.54940338e+00
  2.64892585e+00  2.68234211e+00  2.69610313e+00  2.71889652e+00
  2.77988784e+00  2.79108877e+00  3.04149346e+00  3.39558704e+00]
nelec by numeric integration = 68.00002031317433
    CPU time for vxc      5.87 sec, wall time      0.21 sec
E1 = -1762.3296594457713  Ecoul = 712.1940274300997  Exc = -70.49713157337834
cycle= 3 E= -748.128616927916  delta_E= -0.0393  |g|= 0.0815  |ddm|= 0.484
    CPU time for cycle= 3      6.38 sec, wall time      0.23 sec
  HOMO = -0.258965471776693  LUMO = -0.0318613192260492
  mo_energy =
[-1.01494763e+02 -1.43266099e+01 -1.02293826e+01 -1.02291034e+01
 -1.02176011e+01 -1.02090546e+01 -1.02069870e+01 -1.02067401e+01
 -9.42556430e+00 -7.18874964e+00 -7.17908168e+00 -7.17907182e+00
 -9.56079077e-01 -8.20895232e-01 -8.14539998e-01 -7.73652567e-01
 -6.54733164e-01 -6.42492704e-01 -6.37303935e-01 -5.39522743e-01
 -4.90653542e-01 -4.82830647e-01 -4.41936711e-01 -4.24873659e-01
 -4.23129984e-01 -4.16150873e-01 -4.08038819e-01 -3.83148278e-01
 -3.75741996e-01 -2.97967351e-01 -2.74002351e-01 -2.73925073e-01
 -2.73298531e-01 -2.58965472e-01 -3.18613192e-02 -2.09329926e-02
  5.19552063e-02  8.92637792e-02  1.20556506e-01  1.26479059e-01
  1.37936681e-01  1.48279139e-01  1.55843755e-01  1.71480284e-01
  1.74996624e-01  2.01393729e-01  2.46004663e-01  2.86401916e-01
  3.13434783e-01  3.14448987e-01  4.28152147e-01  4.39309027e-01
  4.46470988e-01  4.80619844e-01  4.80881002e-01  4.80898585e-01
  5.03543069e-01  5.26929760e-01  5.45753086e-01  5.66813363e-01
  5.75634989e-01  5.75812157e-01  5.88444866e-01  5.89565293e-01
  5.90258183e-01  6.00782791e-01  6.18384599e-01  6.45159276e-01
  6.77651180e-01  6.84428565e-01  7.22544600e-01  8.10358895e-01
  8.22097221e-01  8.35381832e-01  8.44550090e-01  8.48792349e-01
  8.79159765e-01  8.82830595e-01  9.05404285e-01  9.10950031e-01
  9.19632186e-01  9.30151396e-01  9.31897874e-01  9.67528356e-01
  9.73641752e-01  9.75296394e-01  1.03287902e+00  1.06152753e+00
  1.07545601e+00  1.11407871e+00  1.15836893e+00  1.20019047e+00
  1.20393239e+00  1.23954572e+00  1.36611503e+00  1.38835873e+00
  1.45012707e+00  1.45833319e+00  1.46195823e+00  1.47140782e+00
  1.50948575e+00  1.51537175e+00  1.69296251e+00  1.70700865e+00
  1.70737525e+00  1.76603742e+00  1.81815725e+00  1.83231362e+00
  1.93147205e+00  1.95477899e+00  2.04973283e+00  2.12140819e+00
  2.12398408e+00  2.16300190e+00  2.17078079e+00  2.20779214e+00
  2.21094201e+00  2.24739986e+00  2.25990365e+00  2.28683249e+00
  2.31293639e+00  2.37505160e+00  2.53877548e+00  2.54787496e+00
  2.64555523e+00  2.67993792e+00  2.69407985e+00  2.71477416e+00
  2.77678681e+00  2.78801884e+00  3.04099528e+00  3.39221140e+00]
nelec by numeric integration = 68.000021072718
    CPU time for vxc      5.84 sec, wall time      0.21 sec
E1 = -1762.5552996417703  Ecoul = 712.4350871324667  Exc = -70.51369286061467
cycle= 4 E= -748.129758708785  delta_E= -0.00114  |g|= 0.037  |ddm|= 0.0949
    CPU time for cycle= 4      6.38 sec, wall time      0.23 sec
  HOMO = -0.262376766766639  LUMO = -0.0308187044280017
  mo_energy =
[-1.01490512e+02 -1.43363331e+01 -1.02281678e+01 -1.02281658e+01
 -1.02106498e+01 -1.02101193e+01 -1.02002487e+01 -1.02002411e+01
 -9.42251998e+00 -7.18552970e+00 -7.17595276e+00 -7.17594277e+00
 -9.57307712e-01 -8.20269991e-01 -8.11164889e-01 -7.71701675e-01
 -6.55632088e-01 -6.41806966e-01 -6.35169700e-01 -5.37890903e-01
 -4.89162381e-01 -4.81438174e-01 -4.40045790e-01 -4.26063240e-01
 -4.24232654e-01 -4.14483674e-01 -4.07800488e-01 -3.82798587e-01
 -3.74284783e-01 -2.96441359e-01 -2.73526503e-01 -2.73206620e-01
 -2.71505513e-01 -2.62376767e-01 -3.08187044e-02 -1.91032249e-02
  5.18316511e-02  9.03858913e-02  1.20269532e-01  1.26436796e-01
  1.39120279e-01  1.48465828e-01  1.56446753e-01  1.70299449e-01
  1.75831478e-01  2.00953236e-01  2.47028018e-01  2.88485372e-01
  3.14052055e-01  3.15444781e-01  4.28450325e-01  4.40345259e-01
  4.47049752e-01  4.80802295e-01  4.81056273e-01  4.81283027e-01
  5.05460164e-01  5.27955585e-01  5.45391273e-01  5.66572524e-01
  5.77396660e-01  5.77440039e-01  5.89322008e-01  5.92004495e-01
  5.92039046e-01  6.03099998e-01  6.18058943e-01  6.46707429e-01
  6.80130625e-01  6.84513040e-01  7.21415705e-01  8.10857401e-01
  8.24964556e-01  8.36554818e-01  8.46345324e-01  8.46541256e-01
  8.79352161e-01  8.82575074e-01  9.05494982e-01  9.13036002e-01
  9.20308775e-01  9.30295612e-01  9.33165686e-01  9.68789830e-01
  9.73383754e-01  9.75351180e-01  1.03178988e+00  1.06152925e+00
  1.07646423e+00  1.11483426e+00  1.16039884e+00  1.20001341e+00
  1.20395701e+00  1.24141983e+00  1.36833995e+00  1.38835459e+00
  1.44981149e+00  1.46036359e+00  1.46133295e+00  1.47448096e+00
  1.50896816e+00  1.51594865e+00  1.69315011e+00  1.70592099e+00
  1.70634073e+00  1.76592615e+00  1.82095433e+00  1.83383978e+00
  1.93394965e+00  1.95686325e+00  2.05263848e+00  2.12333392e+00
  2.12651717e+00  2.16600988e+00  2.17177418e+00  2.20773529e+00
  2.21094376e+00  2.24615882e+00  2.25872112e+00  2.28897351e+00
  2.31504706e+00  2.37473905e+00  2.54100657e+00  2.54929078e+00
  2.64735932e+00  2.68143463e+00  2.69442157e+00  2.71636558e+00
  2.77906336e+00  2.78921249e+00  3.04064049e+00  3.39343503e+00]
nelec by numeric integration = 68.00002072127702
    CPU time for vxc      5.89 sec, wall time      0.21 sec
E1 = -1762.5049495429796  Ecoul = 712.3812457551321  Exc = -70.51050340051948
cycle= 5 E= -748.130060527233  delta_E= -0.000302  |g|= 0.0105  |ddm|= 0.0444
    CPU time for cycle= 5      6.44 sec, wall time      0.23 sec
  HOMO = -0.260970534536044  LUMO = -0.0303839383934114
  mo_energy =
[-1.01487777e+02 -1.43339084e+01 -1.02247944e+01 -1.02247626e+01
 -1.02122012e+01 -1.02076495e+01 -1.02014122e+01 -1.02013600e+01
 -9.42041774e+00 -7.18335213e+00 -7.17379367e+00 -7.17378361e+00
 -9.55631014e-01 -8.19315111e-01 -8.11466863e-01 -7.70872362e-01
 -6.54552801e-01 -6.41140816e-01 -6.34820149e-01 -5.37622800e-01
 -4.88552388e-01 -4.81304008e-01 -4.39637335e-01 -4.25142537e-01
 -4.23353104e-01 -4.14458736e-01 -4.06860183e-01 -3.81864514e-01
 -3.74022856e-01 -2.96362202e-01 -2.72709337e-01 -2.72405280e-01
 -2.70901972e-01 -2.60970535e-01 -3.03839384e-02 -1.85390686e-02
  5.27996502e-02  9.04282303e-02  1.20705453e-01  1.26926623e-01
  1.39621263e-01  1.48680181e-01  1.56589842e-01  1.70954858e-01
  1.75804713e-01  2.01532087e-01  2.47448448e-01  2.88406396e-01
  3.14682054e-01  3.15819940e-01  4.29137813e-01  4.40852715e-01
  4.47506722e-01  4.81391762e-01  4.81648307e-01  4.81879567e-01
  5.05890810e-01  5.28291829e-01  5.46024067e-01  5.67321366e-01
  5.77813509e-01  5.77915380e-01  5.90003077e-01  5.91404117e-01
  5.92294586e-01  6.03131571e-01  6.19139257e-01  6.47165489e-01
  6.79830590e-01  6.85602286e-01  7.22664989e-01  8.11797895e-01
  8.24383106e-01  8.37005277e-01  8.46443329e-01  8.47537075e-01
  8.80240922e-01  8.83581396e-01  9.06107867e-01  9.12964937e-01
  9.21041309e-01  9.31251447e-01  9.33548508e-01  9.69352789e-01
  9.74386032e-01  9.76122165e-01  1.03279212e+00  1.06222520e+00
  1.07688625e+00  1.11529576e+00  1.16025233e+00  1.20074356e+00
  1.20450333e+00  1.24194704e+00  1.36873297e+00  1.38874022e+00
  1.45047884e+00  1.46118582e+00  1.46123506e+00  1.47461613e+00
  1.50998606e+00  1.51728060e+00  1.69388277e+00  1.70712195e+00
  1.70753537e+00  1.76700168e+00  1.82113628e+00  1.83407643e+00
  1.93378551e+00  1.95738630e+00  2.05295222e+00  2.12395877e+00
  2.12685232e+00  2.16577578e+00  2.17288686e+00  2.20886828e+00
  2.21194175e+00  2.24725249e+00  2.25982347e+00  2.28964058e+00
  2.31507937e+00  2.37596414e+00  2.54153193e+00  2.54971377e+00
  2.64788693e+00  2.68194194e+00  2.69538870e+00  2.71711510e+00
  2.77917648e+00  2.78996361e+00  3.04183717e+00  3.39415061e+00]
nelec by numeric integration = 68.00002075129478
    CPU time for vxc      5.94 sec, wall time      0.21 sec
E1 = -1762.4398872488237  Ecoul = 712.3120726199446  Exc = -70.50641933490331
cycle= 6 E= -748.130087302649  delta_E= -2.68e-05  |g|= 0.00447  |ddm|= 0.0153
    CPU time for cycle= 6      6.45 sec, wall time      0.23 sec
  HOMO = -0.261242872225606  LUMO = -0.0304305922988783
  mo_energy =
[-1.01487787e+02 -1.43343964e+01 -1.02259228e+01 -1.02258754e+01
 -1.02114262e+01 -1.02077696e+01 -1.02011444e+01 -1.02010932e+01
 -9.42047033e+00 -7.18339688e+00 -7.17384232e+00 -7.17383223e+00
 -9.56206491e-01 -8.19468850e-01 -8.11361367e-01 -7.71142763e-01
 -6.54605778e-01 -6.41285533e-01 -6.34871516e-01 -5.37671549e-01
 -4.88718664e-01 -4.81297326e-01 -4.39801581e-01 -4.25262737e-01
 -4.23457809e-01 -4.14400131e-01 -4.07143618e-01 -3.81956689e-01
 -3.74072583e-01 -2.96340312e-01 -2.72808703e-01 -2.72511640e-01
 -2.71114280e-01 -2.61242872e-01 -3.04305923e-02 -1.87143614e-02
  5.26934120e-02  9.04775280e-02  1.20664207e-01  1.26845156e-01
  1.39528936e-01  1.48675710e-01  1.56620726e-01  1.70854342e-01
  1.75862129e-01  2.01435915e-01  2.47336450e-01  2.88466248e-01
  3.14527434e-01  3.15761513e-01  4.29115649e-01  4.40722426e-01
  4.47424324e-01  4.81298230e-01  4.81555418e-01  4.81705370e-01
  5.05760617e-01  5.28238044e-01  5.45948263e-01  5.67212145e-01
  5.77706758e-01  5.77761124e-01  5.89860643e-01  5.91604698e-01
  5.92255283e-01  6.03147743e-01  6.18839412e-01  6.47027321e-01
  6.79960988e-01  6.85361164e-01  7.22410366e-01  8.11558132e-01
  8.24633136e-01  8.36893108e-01  8.46482751e-01  8.47324198e-01
  8.80137441e-01  8.83444613e-01  9.06102688e-01  9.13044771e-01
  9.20957750e-01  9.31136874e-01  9.33530960e-01  9.69281329e-01
  9.74275116e-01  9.76050604e-01  1.03257731e+00  1.06213882e+00
  1.07679891e+00  1.11518104e+00  1.16031497e+00  1.20063674e+00
  1.20440735e+00  1.24179708e+00  1.36858952e+00  1.38869213e+00
  1.45035540e+00  1.46110663e+00  1.46122947e+00  1.47458375e+00
  1.50970129e+00  1.51685103e+00  1.69368988e+00  1.70699921e+00
  1.70740992e+00  1.76669798e+00  1.82108230e+00  1.83404062e+00
  1.93384657e+00  1.95718977e+00  2.05284359e+00  2.12373041e+00
  2.12675710e+00  2.16586453e+00  2.17254275e+00  2.20867247e+00
  2.21176087e+00  2.24714036e+00  2.25969869e+00  2.28942367e+00
  2.31514645e+00  2.37560560e+00  2.54134843e+00  2.54960932e+00
  2.64773964e+00  2.68180655e+00  2.69516566e+00  2.71691995e+00
  2.77919592e+00  2.78977406e+00  3.04155118e+00  3.39400431e+00]
nelec by numeric integration = 68.00002074598486
    CPU time for vxc      6.54 sec, wall time      0.23 sec
E1 = -1762.4538525076173  Ecoul = 712.3265207709477  Exc = -70.50690772799932
cycle= 7 E= -748.130092803535  delta_E= -5.5e-06  |g|= 0.000505  |ddm|= 0.00449
    CPU time for cycle= 7      7.42 sec, wall time      0.26 sec
  HOMO = -0.261218554132244  LUMO = -0.0304239058368544
  mo_energy =
[-1.01488031e+02 -1.43343782e+01 -1.02258532e+01 -1.02258226e+01
 -1.02115663e+01 -1.02079702e+01 -1.02010335e+01 -1.02009955e+01
 -9.42065916e+00 -7.18359371e+00 -7.17403535e+00 -7.17402526e+00
 -9.56178910e-01 -8.19554864e-01 -8.11362181e-01 -7.71098859e-01
 -6.54670288e-01 -6.41264608e-01 -6.34853032e-01 -5.37660058e-01
 -4.88694633e-01 -4.81272956e-01 -4.39768524e-01 -4.25307260e-01
 -4.23505064e-01 -4.14414539e-01 -4.07123221e-01 -3.82035507e-01
 -3.74058439e-01 -2.96341123e-01 -2.72883384e-01 -2.72578860e-01
 -2.71080773e-01 -2.61218554e-01 -3.04239058e-02 -1.86815451e-02
  5.26283906e-02  9.04686819e-02  1.20659415e-01  1.26852432e-01
  1.39550275e-01  1.48676780e-01  1.56621150e-01  1.70832525e-01
  1.75866833e-01  2.01433047e-01  2.47345577e-01  2.88473100e-01
  3.14551716e-01  3.15778105e-01  4.29048158e-01  4.40737160e-01
  4.47434960e-01  4.81245503e-01  4.81501948e-01  4.81671878e-01
  5.05778871e-01  5.28246766e-01  5.45909028e-01  5.67186424e-01
  5.77724427e-01  5.77794532e-01  5.89864242e-01  5.91607088e-01
  5.92246888e-01  6.03155246e-01  6.18848114e-01  6.47057061e-01
  6.79965219e-01  6.85382824e-01  7.22413545e-01  8.11585483e-01
  8.24613705e-01  8.36918677e-01  8.46510440e-01  8.47323544e-01
  8.80072297e-01  8.83381049e-01  9.06066696e-01  9.13044907e-01
  9.20911920e-01  9.31063281e-01  9.33503893e-01  9.69261543e-01
  9.74209717e-01  9.76002869e-01  1.03259777e+00  1.06210227e+00
  1.07680948e+00  1.11518589e+00  1.16032295e+00  1.20061410e+00
  1.20440591e+00  1.24182008e+00  1.36861230e+00  1.38869775e+00
  1.45036594e+00  1.46110892e+00  1.46124557e+00  1.47460040e+00
  1.50972238e+00  1.51688769e+00  1.69371274e+00  1.70691946e+00
  1.70733276e+00  1.76672202e+00  1.82109946e+00  1.83405401e+00
  1.93385098e+00  1.95722658e+00  2.05285969e+00  2.12376591e+00
  2.12678176e+00  2.16586884e+00  2.17257566e+00  2.20863743e+00
  2.21173845e+00  2.24707518e+00  2.25963733e+00  2.28946361e+00
  2.31514703e+00  2.37563362e+00  2.54138169e+00  2.54962017e+00
  2.64776808e+00  2.68182452e+00  2.69519339e+00  2.71695501e+00
  2.77920352e+00  2.78980073e+00  3.04158027e+00  3.39403111e+00]
nelec by numeric integration = 68.0000207473965
    CPU time for vxc      5.97 sec, wall time      0.21 sec
E1 = -1762.455510258014  Ecoul = 712.3283297446429  Exc = -70.50705901410981
cycle= 8 E= -748.130092866347  delta_E= -6.28e-08  |g|= 0.00018  |ddm|= 0.000641
    CPU time for cycle= 8      6.78 sec, wall time      0.24 sec
  HOMO = -0.261217585940521  LUMO = -0.0304160313389088
  mo_energy =
[-1.01488037e+02 -1.43343754e+01 -1.02258431e+01 -1.02258026e+01
 -1.02115103e+01 -1.02079467e+01 -1.02010673e+01 -1.02010197e+01
 -9.42065932e+00 -7.18359588e+00 -7.17403563e+00 -7.17402555e+00
 -9.56174411e-01 -8.19546134e-01 -8.11354832e-01 -7.71100008e-01
 -6.54663724e-01 -6.41263847e-01 -6.34848180e-01 -5.37654525e-01
 -4.88691792e-01 -4.81277774e-01 -4.39771179e-01 -4.25298902e-01
 -4.23496733e-01 -4.14402898e-01 -4.07119339e-01 -3.82030995e-01
 -3.74056745e-01 -2.96333364e-01 -2.72879743e-01 -2.72575456e-01
 -2.71082429e-01 -2.61217586e-01 -3.04160313e-02 -1.86832083e-02
  5.26340293e-02  9.04716148e-02  1.20662854e-01  1.26853429e-01
  1.39552456e-01  1.48676778e-01  1.56624852e-01  1.70837716e-01
  1.75866992e-01  2.01436480e-01  2.47348965e-01  2.88477336e-01
  3.14551947e-01  3.15779252e-01  4.29044100e-01  4.40738482e-01
  4.47437167e-01  4.81248162e-01  4.81504629e-01  4.81676554e-01
  5.05782229e-01  5.28249833e-01  5.45915189e-01  5.67191469e-01
  5.77724872e-01  5.77792409e-01  5.89868275e-01  5.91609480e-01
  5.92257037e-01  6.03159045e-01  6.18853671e-01  6.47055567e-01
  6.79967766e-01  6.85385098e-01  7.22418999e-01  8.11586903e-01
  8.24625626e-01  8.36917277e-01  8.46503662e-01  8.47327609e-01
  8.80078121e-01  8.83386234e-01  9.06071503e-01  9.13048169e-01
  9.20917276e-01  9.31068633e-01  9.33507833e-01  9.69265509e-01
  9.74212781e-01  9.76006842e-01  1.03259886e+00  1.06210763e+00
  1.07680948e+00  1.11519004e+00  1.16032412e+00  1.20061636e+00
  1.20440675e+00  1.24182289e+00  1.36861556e+00  1.38870148e+00
  1.45036801e+00  1.46111220e+00  1.46124610e+00  1.47460592e+00
  1.50972671e+00  1.51689081e+00  1.69371391e+00  1.70693203e+00
  1.70734506e+00  1.76672559e+00  1.82110359e+00  1.83405883e+00
  1.93385537e+00  1.95722463e+00  2.05286630e+00  2.12376571e+00
  2.12678346e+00  2.16587413e+00  2.17257870e+00  2.20864628e+00
  2.21174714e+00  2.24708636e+00  2.25964834e+00  2.28946221e+00
  2.31515444e+00  2.37563703e+00  2.54138214e+00  2.54962608e+00
  2.64776895e+00  2.68182913e+00  2.69519538e+00  2.71695495e+00
  2.77921025e+00  2.78980396e+00  3.04158373e+00  3.39403383e+00]
nelec by numeric integration = 68.00002074704378
    CPU time for vxc      5.90 sec, wall time      0.21 sec
E1 = -1762.4551449833693  Ecoul = 712.3279446257385  Exc = -70.50703917708074
cycle= 9 E= -748.130092873578  delta_E= -7.23e-09  |g|= 4.69e-05  |ddm|= 0.000163
    CPU time for cycle= 9      6.44 sec, wall time      0.23 sec
  HOMO = -0.261223172978198  LUMO = -0.0304210420559782
  mo_energy =
[-1.01488008e+02 -1.43343833e+01 -1.02258463e+01 -1.02258125e+01
 -1.02115265e+01 -1.02079347e+01 -1.02010662e+01 -1.02010255e+01
 -9.42063454e+00 -7.18357078e+00 -7.17401035e+00 -7.17400026e+00
 -9.56179748e-01 -8.19536369e-01 -8.11360196e-01 -7.71103587e-01
 -6.54658960e-01 -6.41268169e-01 -6.34852123e-01 -5.37658281e-01
 -4.88696739e-01 -4.81279878e-01 -4.39773695e-01 -4.25297526e-01
 -4.23495075e-01 -4.14406960e-01 -4.07123258e-01 -3.82023211e-01
 -3.74060557e-01 -2.96338381e-01 -2.72869206e-01 -2.72565843e-01
 -2.71084838e-01 -2.61223173e-01 -3.04210421e-02 -1.86866513e-02
  5.26399316e-02  9.04707038e-02  1.20661669e-01  1.26852334e-01
  1.39548399e-01  1.48675695e-01  1.56622787e-01  1.70837658e-01
  1.75865963e-01  2.01435152e-01  2.47345699e-01  2.88473965e-01
  3.14548615e-01  3.15775882e-01  4.29053753e-01  4.40736535e-01
  4.47434678e-01  4.81255576e-01  4.81512118e-01  4.81680494e-01
  5.05778836e-01  5.28246348e-01  5.45917340e-01  5.67192693e-01
  5.77722067e-01  5.77789900e-01  5.89865950e-01  5.91605934e-01
  5.92253276e-01  6.03155590e-01  6.18850074e-01  6.47052874e-01
  6.79964294e-01  6.85382271e-01  7.22416421e-01  8.11584319e-01
  8.24621203e-01  8.36914916e-01  8.46501811e-01  8.47324950e-01
  8.80085537e-01  8.83393893e-01  9.06072974e-01  9.13045499e-01
  9.20922516e-01  9.31078062e-01  9.33509813e-01  9.69267036e-01
  9.74220184e-01  9.76011048e-01  1.03259538e+00  1.06210966e+00
  1.07680807e+00  1.11518725e+00  1.16032151e+00  1.20061791e+00
  1.20440601e+00  1.24181803e+00  1.36861122e+00  1.38869793e+00
  1.45036503e+00  1.46110931e+00  1.46124143e+00  1.47460116e+00
  1.50972138e+00  1.51688681e+00  1.69370955e+00  1.70693601e+00
  1.70734885e+00  1.76672169e+00  1.82109891e+00  1.83405406e+00
  1.93385103e+00  1.95722145e+00  2.05286148e+00  2.12376189e+00
  2.12677911e+00  2.16586879e+00  2.17257472e+00  2.20864697e+00
  2.21174577e+00  2.24708865e+00  2.25965031e+00  2.28945863e+00
  2.31514857e+00  2.37563226e+00  2.54137840e+00  2.54962087e+00
  2.64776429e+00  2.68182441e+00  2.69519045e+00  2.71695055e+00
  2.77920463e+00  2.78979905e+00  3.04157853e+00  3.39402892e+00]
nelec by numeric integration = 68.00002074675294
    CPU time for vxc      5.88 sec, wall time      0.21 sec
E1 = -1762.4550078895265  Ecoul = 712.327795843393  Exc = -70.50702748918384
cycle= 10 E= -748.130092874184  delta_E= -6.06e-10  |g|= 1.56e-05  |ddm|= 7.92e-05
    CPU time for cycle= 10      6.39 sec, wall time      0.23 sec
  HOMO = -0.261223209208382  LUMO = -0.0304196097180259
  mo_energy =
[-1.01488022e+02 -1.43343855e+01 -1.02258455e+01 -1.02258028e+01
 -1.02115202e+01 -1.02079368e+01 -1.02010714e+01 -1.02010214e+01
 -9.42064576e+00 -7.18358220e+00 -7.17402179e+00 -7.17401171e+00
 -9.56178351e-01 -8.19540959e-01 -8.11358765e-01 -7.71102078e-01
 -6.54660503e-01 -6.41266885e-01 -6.34850571e-01 -5.37656801e-01
 -4.88695161e-01 -4.81279139e-01 -4.39772579e-01 -4.25298172e-01
 -4.23495715e-01 -4.14405844e-01 -4.07122050e-01 -3.82026151e-01
 -3.74059106e-01 -2.96337129e-01 -2.72873502e-01 -2.72569779e-01
 -2.71083768e-01 -2.61223209e-01 -3.04196097e-02 -1.86853163e-02
  5.26377336e-02  9.04709150e-02  1.20662211e-01  1.26852730e-01
  1.39549631e-01  1.48675859e-01  1.56623528e-01  1.70837385e-01
  1.75865730e-01  2.01436121e-01  2.47346702e-01  2.88475048e-01
  3.14549279e-01  3.15777135e-01  4.29051032e-01  4.40736826e-01
  4.47435606e-01  4.81252523e-01  4.81509051e-01  4.81678107e-01
  5.05780305e-01  5.28247242e-01  5.45916324e-01  5.67192095e-01
  5.77723159e-01  5.77790946e-01  5.89866479e-01  5.91606642e-01
  5.92254950e-01  6.03156954e-01  6.18851121e-01  6.47053955e-01
  6.79965229e-01  6.85383634e-01  7.22417332e-01  8.11586045e-01
  8.24622686e-01  8.36915754e-01  8.46502136e-01  8.47324921e-01
  8.80082432e-01  8.83390448e-01  9.06072408e-01  9.13046110e-01
  9.20920443e-01  9.31074090e-01  9.33508969e-01  9.69266449e-01
  9.74216997e-01  9.76009444e-01  1.03259609e+00  1.06210871e+00
  1.07680859e+00  1.11518824e+00  1.16032234e+00  1.20061674e+00
  1.20440560e+00  1.24181962e+00  1.36861280e+00  1.38869844e+00
  1.45036589e+00  1.46110969e+00  1.46124261e+00  1.47460303e+00
  1.50972252e+00  1.51688888e+00  1.69371046e+00  1.70693468e+00
  1.70734757e+00  1.76672301e+00  1.82110050e+00  1.83405522e+00
  1.93385221e+00  1.95722276e+00  2.05286349e+00  2.12376332e+00
  2.12678062e+00  2.16587019e+00  2.17257645e+00  2.20864661e+00
  2.21174608e+00  2.24708800e+00  2.25964984e+00  2.28946016e+00
  2.31515013e+00  2.37563373e+00  2.54137988e+00  2.54962229e+00
  2.64776564e+00  2.68182594e+00  2.69519193e+00  2.71695208e+00
  2.77920618e+00  2.78980065e+00  3.04158000e+00  3.39403048e+00]
nelec by numeric integration = 68.00002074683988
    CPU time for vxc      5.97 sec, wall time      0.21 sec
E1 = -1762.45509575541  Ecoul = 712.3278909142265  Exc = -70.50703469407259
Extra cycle  E= -748.130092874122  delta_E= 6.14e-11  |g|= 2.15e-05  |ddm|= 3.79e-05
    CPU time for scf_cycle     87.63 sec, wall time      3.22 sec
    CPU time for SCF     87.64 sec, wall time      3.22 sec
converged SCF energy = -748.130092874122
Converting <class 'pyscf.dft.rks.RKS'> to RHF


******** <class 'pyscf.tdscf.rks.TDA'> for <class 'pyscf.dft.rks.RKS'> ********
nstates = 10 singlet
wfnsym = None
conv_tol = 1e-09
eigh lindep = 1e-12
eigh level_shift = 0
eigh max_space = 50
eigh max_cycle = 100
chkfile = /scratch/global/yangjunjie/tmpgxx0ctak
max_memory 256000 MB (current use 600 MB)


davidson 0 10  |r|= 0.25  e= [0.18686138 0.19223277 0.21603958 0.22353553 0.22359177 0.23552744
 0.23574301 0.28019266 0.36207173 0.37412758]  max|de|= 0.374  lindep=    1
Old state -> New state
    4     ->     3 
    3     ->     4 
davidson 1 20  |r|= 0.0471  e= [0.18408202 0.19131187 0.2116209  0.22336372 0.22340237 0.23546912
 0.23554872 0.24984471 0.30198418 0.30501439]  max|de|= -0.0691  lindep= 0.877
davidson 2 30  |r|= 0.027  e= [0.18395821 0.19128311 0.21144201 0.22333824 0.2234017  0.23546786
 0.23553012 0.2495866  0.29989851 0.30093619]  max|de|= -0.00408  lindep=  0.8
Old state -> New state
    9     ->     8 
    8     ->     9 
davidson 3 40  |r|= 0.0538  e= [0.18395592 0.19128253 0.21143666 0.22333754 0.22340164 0.23546772
 0.23552976 0.24954352 0.29367875 0.2995966 ]  max|de|= -0.00726  lindep= 0.806
davidson 4 50  |r|= 0.0312  e= [0.18395585 0.19128251 0.21143652 0.2233375  0.22340163 0.2354677
 0.23552973 0.24953782 0.28750557 0.29950503]  max|de|= -0.00617  lindep= 0.757
Old state -> New state
    8     ->     9 
root 1 converged  |r|= 1.29e-06  e= 0.19128251080881492  max|de|= -2.27e-10
root 4 converged  |r|= 2.61e-06  e= 0.2234016339937477  max|de|= -6.78e-10
davidson 5 60  |r|= 0.0592  e= [0.18395585 0.19128251 0.21143652 0.22333749 0.22340163 0.2354677
 0.23552972 0.24953723 0.28277228 0.2855225 ]  max|de|= -0.00473  lindep= 0.803
root 0 converged  |r|= 4.29e-07  e= 0.1839558505535254  max|de|= -2.59e-11
root 2 converged  |r|= 7.49e-07  e= 0.21143651561435797  max|de|= -2.72e-11
root 3 converged  |r|= 1.33e-06  e= 0.2233374941556832  max|de|= -6.37e-11
root 5 converged  |r|= 2.63e-06  e= 0.23546769663027914  max|de|= -1.37e-10
root 6 converged  |r|= 2.95e-06  e= 0.2355297210257003  max|de|= -2.96e-10
davidson 6 68  |r|= 0.0152  e= [0.18395585 0.19128251 0.21143652 0.22333749 0.22340163 0.2354677
 0.23552972 0.24953719 0.27835439 0.28471652]  max|de|= -0.00442  lindep= 0.848
davidson 7 10  |r|= 0.0152  e= [0.18395585 0.19128251 0.21143652 0.22333749 0.22340163 0.2354677
 0.23552972 0.24953719 0.27835439 0.28471652]  max|de|= -2.22e-16  lindep= 0.998
davidson 8 13  |r|= 0.00675  e= [0.18395585 0.19128251 0.21143652 0.22333749 0.22340163 0.2354677
 0.23552972 0.24953719 0.27805812 0.28467581]  max|de|= -0.000296  lindep= 0.74
root 7 converged  |r|= 2.86e-06  e= 0.24953718827519236  max|de|= -1.6e-10
davidson 9 16  |r|= 0.00179  e= [0.18395585 0.19128251 0.21143652 0.22333749 0.22340163 0.2354677
 0.23552972 0.24953719 0.27800382 0.28466783]  max|de|= -5.43e-05  lindep= 0.916
davidson 10 18  |r|= 0.000884  e= [0.18395585 0.19128251 0.21143652 0.22333749 0.22340163 0.2354677
 0.23552972 0.24953719 0.27799779 0.28466678]  max|de|= -6.03e-06  lindep= 0.885
davidson 11 20  |r|= 0.000404  e= [0.18395585 0.19128251 0.21143652 0.22333749 0.22340163 0.2354677
 0.23552972 0.24953719 0.2779969  0.28466659]  max|de|= -8.93e-07  lindep= 0.856
davidson 12 22  |r|= 0.000209  e= [0.18395585 0.19128251 0.21143652 0.22333749 0.22340163 0.2354677
 0.23552972 0.24953719 0.27799665 0.28466649]  max|de|= -2.45e-07  lindep= 0.796
davidson 13 24  |r|= 0.000121  e= [0.18395585 0.19128251 0.21143652 0.22333749 0.22340163 0.2354677
 0.23552972 0.24953719 0.27799659 0.28466645]  max|de|= -6.51e-08  lindep= 0.889
davidson 14 26  |r|= 5.68e-05  e= [0.18395585 0.19128251 0.21143652 0.22333749 0.22340163 0.2354677
 0.23552972 0.24953719 0.27799657 0.28466643]  max|de|= -2.3e-08  lindep= 0.671
davidson 15 28  |r|= 3.28e-05  e= [0.18395585 0.19128251 0.21143652 0.22333749 0.22340163 0.2354677
 0.23552972 0.24953719 0.27799656 0.28466642]  max|de|= -6.9e-09  lindep= 0.734
davidson 16 30  |r|= 2.62e-05  e= [0.18395585 0.19128251 0.21143652 0.22333749 0.22340163 0.2354677
 0.23552972 0.24953719 0.27799656 0.28466642]  max|de|= -2.32e-09  lindep= 0.774
root 8 converged  |r|= 8.3e-06  e= 0.2779965625122019  max|de|= -4.53e-10
davidson 17 32  |r|= 1.38e-05  e= [0.18395585 0.19128251 0.21143652 0.22333749 0.22340163 0.2354677
 0.23552972 0.24953719 0.27799656 0.28466642]  max|de|= -1.22e-09  lindep= 0.851
root 9 converged  |r|= 4.46e-06  e= 0.28466641723640057  max|de|= -2.37e-10
converged 18 33  |r|= 5.46e-06  e= [0.18395585 0.19128251 0.21143652 0.22333749 0.22340163 0.2354677
 0.23552972 0.24953719 0.27799656 0.28466642]  max|de|= -2.37e-10
    CPU time for TDA    279.81 sec, wall time     10.14 sec
Excited State energies (eV)
[5.00569366 5.20506224 5.75348065 6.07732277 6.0790681  6.40740239
 6.40909016 6.79025276 7.56467177 7.74616777]
Converting <class 'pyscf.dft.rks.RKS'> to RHF


******** <class 'pyscf.tdscf.rks.TDDFT'> for <class 'pyscf.dft.rks.RKS'> ********
nstates = 10 singlet
wfnsym = None
conv_tol = 1e-09
eigh lindep = 1e-12
eigh level_shift = 0
eigh max_space = 50
eigh max_cycle = 100
chkfile = /scratch/global/yangjunjie/tmpgxx0ctak
max_memory 256000 MB (current use 659 MB)


davidson 0 10  |r|= 0.393  e= [0.18686138 0.19223277 0.21603958 0.22353553 0.22359177 0.23552744
 0.23574301 0.28019266 0.36207173 0.37412758]  max|de|= 0.374  lindep=    1
Old state -> New state
    8     ->     0 
    9     ->     1 
    0     ->     2 
    1     ->     3 
    2     ->     4 
    7     ->     5 
    4     ->     6 
    3     ->     7 
    0     ->     8 
    5     ->     9 
davidson 1 20  |r|= 0.814  e= [0.08440508 0.09389424 0.18003576 0.19087291 0.20944392 0.21026623
 0.22337187 0.22339145 0.2295978  0.23546402]  max|de|= -0.28  lindep= 0.126
Old state -> New state
    2     ->     0 
    3     ->     1 
    4     ->     2 
    1     ->     3 
    2     ->     4 
    2     ->     5 
    3     ->     6 
    4     ->     7 
    1     ->     8 
    6     ->     9 
davidson 2 30  |r|= 1.59  e= [0.047291   0.06284523 0.08632562 0.13908676 0.17920882 0.18274369
 0.19090792 0.20886975 0.21823403 0.22314758]  max|de|= -0.133  lindep= 0.101
Old state -> New state
    2     ->     1 
    5     ->     3 
    6     ->     4 
    7     ->     5 
    9     ->     6 
    4     ->     7 
    0     ->     9 
davidson 3 40  |r|= 1.55  e= [0.04848429 0.0919495  0.11145347 0.18222822 0.19106255 0.20915087
 0.22323442 0.22340054 0.23543297 0.23546573]  max|de|= 0.188  lindep= 0.00933
Old state -> New state
    3     ->     1 
    0     ->     2 
    5     ->     6 
    6     ->     7 
    7     ->     8 
    8     ->     9 
davidson 4 50  |r|= 1.48  e= [0.0430395  0.07920579 0.12001148 0.18225853 0.19104789 0.20885653
 0.21567832 0.22321524 0.2234003  0.23541602]  max|de|= -0.103  lindep= 0.0346
Old state -> New state
    6     ->     0 
    0     ->     1 
    3     ->     2 
    7     ->     6 
    8     ->     7 
    9     ->     8 
    0     ->     9 
davidson 5 60  |r|= 1.48  e= [0.01549521 0.04124665 0.17573758 0.18213087 0.1910449  0.20899754
 0.22324156 0.22340002 0.23542792 0.23546539]  max|de|= -0.2  lindep= 0.0364
Old state -> New state
    0     ->     1 
    3     ->     2 
    4     ->     3 
    5     ->     4 
    6     ->     5 
    7     ->     6 
    5     ->     7 
davidson 6 70  |r|= 1.36  e= [0.01029145 0.06748699 0.18220697 0.19105122 0.20895842 0.22325287
 0.22340008 0.23012239 0.2354094  0.23546598]  max|de|= 0.052  lindep= 0.0285
Old state -> New state
    0     ->     1 
    2     ->     3 
    3     ->     4 
    4     ->     5 
    5     ->     6 
    6     ->     7 
    0     ->     8 
    8     ->     9 
davidson 7 80  |r|= 1.39  e= [0.04995293 0.13040609 0.14086907 0.18220856 0.191051   0.2089919
 0.22324771 0.22340008 0.22919639 0.23543606]  max|de|= 0.219  lindep= 0.135
davidson 8 10  |r|= 1.39  e= [0.04995293 0.13040609 0.14086907 0.18220856 0.191051   0.2089919
 0.22324771 0.22340008 0.22919639 0.23543606]  max|de|= -1.44e-15  lindep= 0.287
Old state -> New state
    0     ->     1 
    0     ->     2 
    5     ->     3 
    3     ->     4 
    4     ->     5 
    3     ->     6 
    5     ->     7 
    6     ->     8 
    7     ->     9 
davidson 9 20  |r|= 1.56  e= [0.03768148 0.08367374 0.12139814 0.17910138 0.18220575 0.19105062
 0.19977949 0.20898195 0.22324135 0.22340008]  max|de|= 0.0714  lindep= 0.324
Old state -> New state
    1     ->     0 
    0     ->     1 
    0     ->     2 
    0     ->     3 
    7     ->     6 
    8     ->     7 
    9     ->     8 
    3     ->     9 
davidson 10 30  |r|= 1.62  e= [0.00424729 0.02561391 0.09804725 0.12128301 0.18220754 0.19105083
 0.20899221 0.22324325 0.2234001  0.23542088]  max|de|= 0.0836  lindep= 0.126
Old state -> New state
    1     ->     0 
    4     ->     2 
    5     ->     3 
    6     ->     4 
    7     ->     5 
    8     ->     6 
    9     ->     7 
    2     ->     8 
    1     ->     9 
davidson 11 40  |r|= 1.35  e= [0.00961026 0.17288323 0.18220716 0.19105112 0.20899835 0.22324349
 0.2234001  0.2354255  0.27636563 0.2977006 ]  max|de|= 0.272  lindep= 0.255
Old state -> New state
    4     ->     1 
    2     ->     7 
    7     ->     8 
davidson 12 50  |r|= 1.21  e= [0.06112435 0.16284169 0.1822066  0.19105113 0.20900178 0.22324264
 0.2234001  0.2287269  0.2354293  0.30701379]  max|de|= 0.0515  lindep= 0.193
Old state -> New state
    9     ->     0 
    0     ->     1 
    1     ->     2 
    2     ->     3 
    3     ->     4 
    4     ->     5 
    5     ->     6 
    6     ->     7 
    7     ->     9 
davidson 13 60  |r|= 1.38  e= [0.02516356 0.05234315 0.10089879 0.18220697 0.19105114 0.20899989
 0.22324382 0.2234001  0.23542571 0.28501675]  max|de|= -0.282  lindep= 0.0805
Old state -> New state
    1     ->     0 
    0     ->     1 
    3     ->     2 
    4     ->     3 
    1     ->     9 
root 7 converged  |r|= 1.53e-05  e= 0.2234000974641041  max|de|= -8.87e-10
davidson 14 70  |r|= 1.24  e= [0.12026111 0.14072842 0.18220708 0.1905048  0.19105254 0.2090019
 0.22324382 0.2234001  0.23542657 0.25082394]  max|de|= 0.198  lindep= 0.134
Old state -> New state
    1     ->     0 
    3     ->     2 
    2     ->     3 
davidson 15 79  |r|= 1.33  e= [0.08978805 0.09955385 0.17809814 0.18220695 0.19105108 0.20900096
 0.22324308 0.2234001  0.23542573 0.24588641]  max|de|= -0.0509  lindep= 0.0821
root 3 converged  |r|= 1.84e-05  e= 0.18220695186850625  max|de|= -2.78e-16
root 4 converged  |r|= 1.97e-05  e= 0.19105108465346035  max|de|= 4.16e-16
root 7 converged  |r|= 7.17e-06  e= 0.22340009871069613  max|de|= 2.5e-16
davidson 16 10  |r|= 1.33  e= [0.08978805 0.09955385 0.17809814 0.18220695 0.19105108 0.20900096
 0.22324308 0.2234001  0.23542573 0.24588641]  max|de|= -2e-15  lindep= 0.309
Old state -> New state
    1     ->     0 
    0     ->     1 
    1     ->     2 
    1     ->     3 
    3     ->     4 
    4     ->     5 
    5     ->     6 
    5     ->     7 
    6     ->     8 
    7     ->     9 
davidson 17 17  |r|= 1.31  e= [0.06996743 0.08726413 0.13530392 0.14052544 0.18220698 0.19105113
 0.19696489 0.20900133 0.22324266 0.2234001 ]  max|de|= 0.041  lindep= 0.147
Old state -> New state
    3     ->     0 
    0     ->     1 
    0     ->     2 
    6     ->     3 
    7     ->     6 
davidson 18 26  |r|= 1.53  e= [0.01962316 0.06710313 0.1369406  0.17344335 0.18220698 0.19105114
 0.20424708 0.20899999 0.22324382 0.2234001 ]  max|de|= -0.121  lindep= 0.137
Old state -> New state
    2     ->     0 
    4     ->     1 
    5     ->     2 
    7     ->     3 
    8     ->     4 
    9     ->     5 
    3     ->     6 
    3     ->     7 
    1     ->     8 
    1     ->     9 
davidson 19 35  |r|= 1.09  e= [0.12038291 0.18220697 0.19105115 0.20900067 0.22324305 0.2234001
 0.23542606 0.2435679  0.33412654 0.35212417]  max|de|= 0.285  lindep= 0.316
Old state -> New state
    0     ->     1 
    1     ->     2 
    2     ->     3 
    3     ->     4 
    4     ->     5 
    5     ->     6 
    6     ->     7 
    7     ->     8 
davidson 20 42  |r|= 1.05  e= [0.10977626 0.1321384  0.18220697 0.19105115 0.20900072 0.22324296
 0.2234001  0.23542598 0.2388889  0.31811861]  max|de|= -0.034  lindep= 0.0749
Old state -> New state
    8     ->     0 
    0     ->     1 
    1     ->     2 
    2     ->     3 
    3     ->     4 
    4     ->     5 
    5     ->     6 
    6     ->     7 
    7     ->     8 
    8     ->     9 
root 3 converged  |r|= 4.63e-07  e= 0.1822069699078461  max|de|= -8.73e-10
root 4 converged  |r|= 7.66e-07  e= 0.19105114848750282  max|de|= 3e-10
davidson 21 49  |r|= 1.45  e= [0.01777631 0.11384829 0.14473814 0.18220697 0.19105115 0.20900068
 0.22324305 0.2234001  0.23542588 0.24013229]  max|de|= -0.221  lindep= 0.157
Old state -> New state
    3     ->     1 
    3     ->     2 
    4     ->     3 
    5     ->     4 
davidson 22 56  |r|= 1.46  e= [0.00924467 0.15807315 0.18220696 0.19105115 0.20577652 0.20900078
 0.22324307 0.2234001  0.23542603 0.23987408]  max|de|= -0.0241  lindep= 0.0375
Old state -> New state
    0     ->     1 
    3     ->     4 
davidson 23 64  |r|= 1.26  e= [0.06143254 0.09689681 0.18220698 0.19105108 0.19177812 0.20900073
 0.22324305 0.2234001  0.23542607 0.23994158]  max|de|= 0.0877  lindep= 0.0984
Old state -> New state
    2     ->     3 
    3     ->     4 
davidson 24 72  |r|= 1.32  e= [0.02794646 0.09290642 0.18220712 0.18231552 0.19105115 0.20900072
 0.22324308 0.2234001  0.23542597 0.23984179]  max|de|= -0.0335  lindep= 0.0459
Old state -> New state
    2     ->     1 
    4     ->     2 
    5     ->     3 
    5     ->     4 
    6     ->     5 
    7     ->     6 
    9     ->     7 
root 2 converged  |r|= 4.79e-07  e= 0.19105114792610098  max|de|= -8.88e-10
davidson 25 79  |r|= 0.967  e= [0.01146811 0.18220697 0.19105115 0.202717   0.20900072 0.22324307
 0.2234001  0.22627054 0.23542593 0.2396754 ]  max|de|= -0.0165  lindep= 0.0785
root 1 converged  |r|= 3.02e-07  e= 0.18220697149131673  max|de|= 3.28e-15
root 4 converged  |r|= 1.37e-06  e= 0.20900072181150434  max|de|= -1.9e-14
root 5 converged  |r|= 1.9e-05  e= 0.2232430708976259  max|de|= -9.71e-16
davidson 26 10  |r|= 0.967  e= [0.01146811 0.18220697 0.19105115 0.202717   0.20900072 0.22324307
 0.2234001  0.22627054 0.23542593 0.2396754 ]  max|de|= 1.13e-13  lindep= 0.32
Old state -> New state
    1     ->     2 
    1     ->     3 
    2     ->     4 
    4     ->     5 
    5     ->     6 
    6     ->     7 
davidson 27 15  |r|=  1.4  e= [0.06924408 0.12344924 0.17668914 0.18220697 0.19105115 0.20900072
 0.22324308 0.2234001  0.23542595 0.23974389]  max|de|= -0.0588  lindep= 0.262
Old state -> New state
    0     ->     1 
    3     ->     2 
    5     ->     6 
    6     ->     7 
    7     ->     8 
    8     ->     9 
root 9 converged  |r|= 1.04e-05  e= 0.2354259528274567  max|de|= 1.68e-10
davidson 28 21  |r|= 1.29  e= [0.03335789 0.05605294 0.17567105 0.18220697 0.19105115 0.20900073
 0.20962626 0.22324309 0.2234001  0.23542595]  max|de|= -0.0359  lindep= 0.131
Old state -> New state
    1     ->     0 
    3     ->     2 
    5     ->     6 
davidson 29 27  |r|= 1.31  e= [0.03898985 0.13037932 0.15135368 0.18220697 0.19105115 0.20900074
 0.21128831 0.22324307 0.2234001  0.23542596]  max|de|= 0.0743  lindep= 0.083
Old state -> New state
    3     ->     1 
    4     ->     2 
    5     ->     3 
    7     ->     4 
    8     ->     5 
    9     ->     6 
    9     ->     7 
    6     ->     8 
    1     ->     9 
root 4 converged  |r|= 6.41e-07  e= 0.22324307261878093  max|de|= 7.08e-10
davidson 30 33  |r|= 1.29  e= [0.08724096 0.18220697 0.19105115 0.20900072 0.22324307 0.2234001
 0.23384233 0.235426   0.2397391  0.31037204]  max|de|= 0.18  lindep= 0.233
Old state -> New state
    8     ->     3 
    3     ->     4 
    4     ->     5 
    5     ->     6 
    8     ->     9 
root 1 converged  |r|= 1.45e-07  e= 0.18220697048074427  max|de|= 2.9e-10
davidson 31 38  |r|= 1.06  e= [0.04585959 0.18220697 0.19105115 0.19256732 0.20900072 0.22324307
 0.2234001  0.23542597 0.23972783 0.28316858]  max|de|= -0.0472  lindep= 0.157
Old state -> New state
    1     ->     0 
    4     ->     3 
davidson 32 43  |r|= 1.28  e= [0.11594554 0.18220697 0.19105115 0.20789006 0.20900069 0.22324307
 0.2234001  0.23542597 0.23977166 0.27823786]  max|de|= -0.0663  lindep= 0.159
Old state -> New state
    8     ->     0 
    4     ->     3 
    5     ->     4 
    6     ->     5 
    7     ->     6 
    8     ->     7 
root 4 converged  |r|= 1.28e-07  e= 0.2232430724962194  max|de|= -8.08e-11
davidson 33 49  |r|= 1.05  e= [0.14026435 0.18220697 0.19105115 0.20900072 0.22324307 0.2234001
 0.23542597 0.23975726 0.24213389 0.29060572]  max|de|= -0.0995  lindep= 0.189
Old state -> New state
    0     ->     1 
    1     ->     2 
    2     ->     3 
    2     ->     4 
    3     ->     5 
    4     ->     6 
    5     ->     7 
    4     ->     8 
    6     ->     9 
root 9 converged  |r|= 1.04e-06  e= 0.23542596855747955  max|de|= 9.07e-10
davidson 34 53  |r|= 1.09  e= [0.08557826 0.09657745 0.18220697 0.18802783 0.19105115 0.20900072
 0.22324306 0.2234001  0.22456886 0.23542597]  max|de|= -0.0547  lindep= 0.0931
Old state -> New state
    1     ->     0 
    1     ->     2 
    2     ->     3 
    9     ->     8 
    8     ->     9 
davidson 35 58  |r|= 1.09  e= [0.02018339 0.09073252 0.09333546 0.18220697 0.19105115 0.20900072
 0.22324307 0.2234001  0.23542597 0.23616079]  max|de|= -0.0764  lindep= 0.111
Old state -> New state
    3     ->     1 
    3     ->     2 
    4     ->     3 
    5     ->     4 
    6     ->     5 
    7     ->     6 
    8     ->     7 
    9     ->     8 
    0     ->     9 
root 3 converged  |r|= 6.24e-08  e= 0.19105114878288598  max|de|= -2.37e-11
root 4 converged  |r|= 1.26e-08  e= 0.20900072059479757  max|de|= -1.72e-10
root 5 converged  |r|= 3.75e-08  e= 0.22324307201039703  max|de|= -1.28e-10
root 7 converged  |r|= 2.27e-07  e= 0.2354259672045686  max|de|= 5.07e-10
davidson 36 62  |r|= 1.32  e= [0.01926173 0.13691259 0.18220697 0.19105115 0.20900072 0.22324307
 0.2234001  0.23542597 0.23601284 0.23973918]  max|de|= 0.22  lindep= 0.0573
Old state -> New state
    0     ->     1 
davidson 37 66  |r|= 1.32  e= [0.10865053 0.11994726 0.18220697 0.19105115 0.20900072 0.22324307
 0.2234001  0.23542597 0.23603185 0.23973957]  max|de|= 0.101  lindep= 0.0809
Old state -> New state
    1     ->     0 
    2     ->     1 
    3     ->     2 
    4     ->     3 
    5     ->     4 
    6     ->     5 
    8     ->     6 
    9     ->     8 
davidson 38 70  |r|= 1.32  e= [0.0900286  0.18220697 0.19105115 0.20900072 0.22324307 0.2234001
 0.23509909 0.23542597 0.23973596 0.24716784]  max|de|= -0.0299  lindep= 0.0444
Old state -> New state
    1     ->     2 
    2     ->     3 
    3     ->     4 
    4     ->     5 
    5     ->     6 
    6     ->     8 
    8     ->     9 
davidson 39 74  |r|= 1.06  e= [0.09121523 0.15547305 0.18220697 0.19105115 0.20900072 0.22324307
 0.2234001  0.23542597 0.2357169  0.23973941]  max|de|= -0.0267  lindep= 0.102
Old state -> New state
    0     ->     1 
    2     ->     3 
    3     ->     4 
    4     ->     5 
    5     ->     6 
    6     ->     7 
    7     ->     8 
    8     ->     9 
root 8 converged  |r|= 6.17e-07  e= 0.23542596725776083  max|de|= -3.12e-10
davidson 40 78  |r|= 1.22  e= [0.03604696 0.08747885 0.16396443 0.18220697 0.19105115 0.20900072
 0.22324307 0.2234001  0.23542597 0.23571084]  max|de|= -0.0552  lindep= 0.0851
davidson 41 10  |r|= 1.22  e= [0.03604696 0.08747885 0.16396443 0.18220697 0.19105115 0.20900072
 0.22324307 0.2234001  0.23542597 0.23571084]  max|de|= -2.13e-13  lindep= 0.264
Old state -> New state
    3     ->     1 
    4     ->     2 
    5     ->     3 
    6     ->     4 
    6     ->     5 
    7     ->     6 
    8     ->     7 
    9     ->     8 
    2     ->     9 
davidson 42 14  |r|= 1.59  e= [0.07997269 0.18220697 0.19105115 0.20900072 0.22254434 0.22324306
 0.2234001  0.23542597 0.23690925 0.3476875 ]  max|de|= 0.184  lindep= 0.231
Old state -> New state
    1     ->     2 
    2     ->     3 
    3     ->     4 
    0     ->     9 
davidson 43 20  |r|= 1.43  e= [0.0436928  0.18210403 0.18220696 0.19105115 0.20900072 0.22324307
 0.2234001  0.23542597 0.23562322 0.29379205]  max|de|= 0.214  lindep= 0.165
Old state -> New state
    2     ->     1 
    3     ->     2 
    4     ->     7 
    7     ->     8 
    7     ->     9 
root 5 converged  |r|= 2.69e-06  e= 0.22324307236701701  max|de|= 7.4e-10
davidson 44 26  |r|= 1.26  e= [0.00515381 0.18220697 0.19070456 0.19105118 0.20900072 0.22324307
 0.2234001  0.22392306 0.23542596 0.23556379]  max|de|= -0.0385  lindep= 0.132
Old state -> New state
    0     ->     1 
    1     ->     2 
    9     ->     7 
davidson 45 33  |r|= 1.42  e= [0.06254107 0.06707364 0.18220697 0.19105115 0.20900072 0.22324307
 0.2234001  0.23519413 0.23542595 0.2359911 ]  max|de|= 0.0619  lindep= 0.222
Old state -> New state
    4     ->     2 
    2     ->     3 
    3     ->     4 
    4     ->     5 
    5     ->     6 
    6     ->     7 
    8     ->     9 
root 3 converged  |r|= 9.49e-09  e= 0.18220696985601287  max|de|= 9.9e-13
root 4 converged  |r|= 4.29e-08  e= 0.19105114878694965  max|de|= 7.12e-11
root 7 converged  |r|= 5.3e-07  e= 0.2234000986817785  max|de|= -1.98e-11
davidson 46 38  |r|= 1.35  e= [0.05627599 0.07478325 0.16485069 0.18220697 0.19105115 0.20900072
 0.22324307 0.2234001  0.23542598 0.23545535]  max|de|= -0.0442  lindep= 0.0521
Old state -> New state
    3     ->     1 
    4     ->     2 
    5     ->     3 
    6     ->     4 
    7     ->     5 
    8     ->     6 
    9     ->     7 
    1     ->     8 
    2     ->     9 
davidson 47 43  |r|= 1.13  e= [0.02574043 0.18220697 0.19105115 0.20900072 0.22324307 0.2234001
 0.23542597 0.23552945 0.29199886 0.31618342]  max|de|= 0.217  lindep= 0.0899
Old state -> New state
    4     ->     5 
    5     ->     6 
    6     ->     7 
    7     ->     8 
root 7 converged  |r|= 3.46e-07  e= 0.23542596842297323  max|de|= 6.78e-10
davidson 48 47  |r|= 1.09  e= [0.02299596 0.18220697 0.19105115 0.20900072 0.22252658 0.22324307
 0.2234001  0.23542597 0.23560792 0.26344035]  max|de|= -0.0527  lindep= 0.0377
Old state -> New state
    9     ->     1 
    9     ->     2 
    1     ->     3 
    2     ->     4 
    3     ->     5 
    5     ->     6 
    6     ->     7 
    7     ->     8 
    8     ->     9 
davidson 49 51  |r|=  1.1  e= [0.02189294 0.05589011 0.08820964 0.18220697 0.19105115 0.20900072
 0.22324307 0.2234001  0.23542597 0.23551511]  max|de|= -0.208  lindep= 0.0217
Old state -> New state
    3     ->     2 
    4     ->     3 
    5     ->     4 
    6     ->     5 
    7     ->     6 
    8     ->     7 
    9     ->     8 
    2     ->     9 
davidson 50 55  |r|= 1.15  e= [0.02031598 0.14032279 0.18220697 0.19105115 0.20900072 0.22324307
 0.2234001  0.23542597 0.23552082 0.23928981]  max|de|= 0.151  lindep= 0.0123
Old state -> New state
    2     ->     1 
    3     ->     2 
    2     ->     3 
    7     ->     8 
davidson 51 59  |r|= 1.06  e= [0.02046948 0.18220697 0.19105115 0.19815981 0.20900072 0.22324307
 0.2234001  0.23542596 0.235461   0.2407081 ]  max|de|= 0.016  lindep= 0.00555
Old state -> New state
    9     ->     1 
    1     ->     2 
    2     ->     3 
davidson 52 64  |r|= 1.08  e= [0.00825692 0.14088802 0.18220697 0.19105115 0.20900072 0.22324307
 0.2234001  0.23542597 0.23548028 0.24264446]  max|de|= -0.0998  lindep= 0.0226
Old state -> New state
    2     ->     0 
    3     ->     1 
    4     ->     2 
    9     ->     3 
    5     ->     4 
    6     ->     5 
    9     ->     6 
davidson 53 68  |r|= 0.69  e= [0.18220697 0.19105115 0.20900072 0.2162507  0.22324307 0.2234001
 0.23307223 0.23542597 0.23546366 0.27345438]  max|de|= 0.0308  lindep= 0.192
Old state -> New state
    0     ->     1 
    1     ->     2 
    2     ->     3 
    7     ->     6 
    8     ->     7 
    9     ->     8 
davidson 54 73  |r|= 0.836  e= [0.17232328 0.18220697 0.19105115 0.20900072 0.22324307 0.2234001
 0.23542597 0.23546559 0.27911465 0.28898966]  max|de|= 0.0155  lindep= 0.114
Old state -> New state
    0     ->     2 
    2     ->     3 
    3     ->     4 
    4     ->     5 
    5     ->     6 
    6     ->     7 
    7     ->     8 
    0     ->     9 
root 7 converged  |r|= 7.87e-08  e= 0.23542596754341835  max|de|= 3.5e-10
davidson 55 77  |r|=  1.1  e= [0.0601159  0.18220697 0.1855059  0.19105115 0.20900072 0.22324307
 0.2234001  0.23542597 0.2354662  0.2385683 ]  max|de|= -0.112  lindep= 0.0828
davidson 56 10  |r|=  1.1  e= [0.0601159  0.18220697 0.1855059  0.19105115 0.20900072 0.22324307
 0.2234001  0.23542597 0.2354662  0.2385683 ]  max|de|= 7.62e-11  lindep= 0.298
Old state -> New state
    3     ->     2 
    4     ->     3 
    5     ->     4 
    6     ->     5 
    9     ->     6 
davidson 57 14  |r|= 1.33  e= [0.15589847 0.18220697 0.19105115 0.20900072 0.22324307 0.2234001
 0.23445438 0.23542597 0.23546614 0.26187484]  max|de|= 0.0958  lindep= 0.42
Old state -> New state
    6     ->     0 
    7     ->     6 
    8     ->     7 
    6     ->     8 
davidson 58 18  |r|= 0.955  e= [0.01970412 0.18220697 0.19105115 0.20900072 0.22324307 0.2234001
 0.23542597 0.23546617 0.23992274 0.32724543]  max|de|= -0.215  lindep= 0.206
Old state -> New state
    1     ->     0 
    0     ->     1 
    1     ->     2 
    2     ->     3 
    3     ->     4 
    4     ->     5 
    5     ->     6 
    6     ->     7 
    7     ->     8 
    8     ->     9 
davidson 59 22  |r|= 1.25  e= [0.0751323  0.14333842 0.18220697 0.19105115 0.20900072 0.22324307
 0.2234001  0.23542597 0.23546619 0.23997599]  max|de|= 0.124  lindep= 0.18
Old state -> New state
    9     ->     0 
    0     ->     1 
davidson 60 26  |r|= 1.22  e= [0.03408733 0.08081532 0.18220697 0.19105115 0.20900072 0.22324307
 0.2234001  0.23542597 0.23546609 0.23919103]  max|de|= -0.206  lindep= 0.107
Old state -> New state
    2     ->     1 
    3     ->     2 
    4     ->     3 
    5     ->     4 
    6     ->     5 
    7     ->     6 
    8     ->     7 
    9     ->     8 
    1     ->     9 
davidson 61 30  |r|= 1.09  e= [0.03641278 0.18220697 0.19105115 0.20900072 0.22324307 0.2234001
 0.23542597 0.23546607 0.23976316 0.2760539 ]  max|de|= 0.195  lindep= 0.096
Old state -> New state
    1     ->     0 
    2     ->     1 
    8     ->     2 
    9     ->     8 
davidson 62 34  |r|= 0.674  e= [0.18220697 0.19105115 0.20565413 0.20900072 0.22324307 0.2234001
 0.23542597 0.23546588 0.30342941 0.31178594]  max|de|= 0.0357  lindep= 0.354
Old state -> New state
    8     ->     0 
    0     ->     1 
    1     ->     2 
    3     ->     4 
    3     ->     5 
    4     ->     6 
    5     ->     7 
    6     ->     8 
    7     ->     9 
davidson 63 38  |r|= 1.32  e= [0.00495079 0.18220697 0.19105115 0.19974179 0.20561337 0.20900072
 0.22324307 0.2234001  0.23542597 0.23546617]  max|de|= -0.298  lindep= 0.202
Old state -> New state
    5     ->     1 
    1     ->     2 
    2     ->     3 
    5     ->     4 
    6     ->     5 
    7     ->     6 
    8     ->     7 
    9     ->     8 
    3     ->     9 
davidson 64 42  |r|= 1.26  e= [0.01312597 0.16891639 0.18220697 0.19105115 0.20900072 0.22324307
 0.2234001  0.23542597 0.2354661  0.23980878]  max|de|= -0.0401  lindep= 0.0525
Old state -> New state
    2     ->     1 
    3     ->     2 
    4     ->     3 
    5     ->     4 
    6     ->     5 
    7     ->     6 
    8     ->     7 
    9     ->     8 
    1     ->     9 
root 3 converged  |r|= 6.62e-09  e= 0.20900072056364896  max|de|= -3.26e-12
davidson 65 46  |r|= 1.29  e= [0.07378726 0.18220697 0.19105115 0.20900072 0.22324307 0.2234001
 0.23542597 0.2354661  0.23980512 0.27306861]  max|de|= 0.104  lindep= 0.0943
Old state -> New state
    1     ->     0 
    2     ->     1 
    3     ->     2 
    4     ->     3 
    5     ->     4 
    6     ->     5 
    7     ->     6 
    8     ->     7 
    9     ->     8 
davidson 66 50  |r|= 0.254  e= [0.18220697 0.19105115 0.20900072 0.22324307 0.2234001  0.23542597
 0.23546612 0.2396954  0.27711313 0.28646587]  max|de|= 0.0134  lindep= 0.337
Old state -> New state
    2     ->     3 
    3     ->     4 
    4     ->     5 
    5     ->     6 
    6     ->     7 
    7     ->     8 
    7     ->     9 
davidson 67 54  |r|= 0.916  e= [0.18220697 0.19105115 0.2072176  0.20900072 0.22324307 0.2234001
 0.23542597 0.23546609 0.23979135 0.24532449]  max|de|= 0.00563  lindep= 0.18
Old state -> New state
    9     ->     0 
    0     ->     1 
    1     ->     2 
    3     ->     4 
    4     ->     5 
    5     ->     6 
    6     ->     7 
    7     ->     8 
    8     ->     9 
davidson 68 58  |r|= 1.43  e= [0.0907354  0.18220697 0.19105115 0.20900072 0.21581045 0.22324307
 0.2234001  0.23542597 0.23546611 0.23972449]  max|de|= -0.155  lindep= 0.102
Old state -> New state
    1     ->     2 
    2     ->     3 
    3     ->     4 
davidson 69 62  |r|=  1.3  e= [0.02631759 0.10782229 0.18220697 0.19105115 0.20900072 0.22324307
 0.2234001  0.23542597 0.23546611 0.23642578]  max|de|= -0.0744  lindep= 0.0898
Old state -> New state
    9     ->     1 
davidson 70 66  |r|= 1.29  e= [0.02727768 0.1599756  0.18220697 0.19105115 0.20900072 0.22324307
 0.2234001  0.23542597 0.23546611 0.2397356 ]  max|de|= -0.0765  lindep= 0.00995
Old state -> New state
    0     ->     1 
root 8 converged  |r|= 2.13e-06  e= 0.2354661076353758  max|de|= 3.19e-10
davidson 71 70  |r|= 1.32  e= [0.00142961 0.10754241 0.18220697 0.19105115 0.20900072 0.22324307
 0.2234001  0.23542597 0.23546611 0.23973736]  max|de|= 0.0803  lindep= 0.0633
Old state -> New state
    2     ->     0 
    3     ->     1 
    4     ->     2 
    4     ->     3 
    5     ->     4 
    6     ->     5 
    7     ->     6 
    8     ->     7 
    9     ->     8 
    1     ->     9 
davidson 72 73  |r|= 0.936  e= [0.18220697 0.19105115 0.20090815 0.20900072 0.22324307 0.2234001
 0.23542597 0.23546611 0.23973821 0.27627539]  max|de|= 0.169  lindep= 0.167
Old state -> New state
    2     ->     0 
    0     ->     1 
    1     ->     2 
davidson 73 76  |r|= 1.32  e= [0.1714055  0.18220697 0.19105115 0.20900072 0.22324307 0.2234001
 0.23542597 0.23546611 0.2397388  0.2762886 ]  max|de|= -0.0295  lindep= 0.0773
Old state -> New state
    1     ->     0 
davidson 74 79  |r|= 1.12  e= [0.14477949 0.18220697 0.19105115 0.20900072 0.22324307 0.2234001
 0.23542597 0.23546611 0.23973869 0.27471524]  max|de|= -0.0374  lindep= 0.159
root 8 converged  |r|= 2.26e-05  e= 0.23973868993302744  max|de|= -7.43e-13
davidson 75 10  |r|= 1.12  e= [0.14477949 0.18220697 0.19105115 0.20900072 0.22324307 0.2234001
 0.23542597 0.23546611 0.23973869 0.27471524]  max|de|= -9.91e-12  lindep= 0.242
Old state -> New state
    9     ->     0 
    0     ->     1 
    1     ->     2 
    2     ->     3 
    3     ->     4 
    4     ->     5 
    5     ->     6 
    6     ->     7 
    7     ->     8 
    8     ->     9 
davidson 76 12  |r|= 1.49  e= [0.04275501 0.14494147 0.18220697 0.19105115 0.20900072 0.22324307
 0.2234001  0.23542597 0.23546611 0.23973871]  max|de|= -0.232  lindep= 0.192
Old state -> New state
    2     ->     0 
    3     ->     1 
    4     ->     2 
    5     ->     3 
    6     ->     4 
    7     ->     5 
    8     ->     6 
    9     ->     7 
    9     ->     8 
davidson 77 15  |r|= 0.437  e= [0.18220697 0.19105115 0.20900072 0.22324307 0.2234001  0.23542597
 0.23546611 0.23973899 0.24989341 0.27573326]  max|de|= 0.036  lindep= 0.642
Old state -> New state
    0     ->     1 
    1     ->     2 
    2     ->     3 
    3     ->     4 
    4     ->     5 
    5     ->     6 
    6     ->     7 
    7     ->     8 
    8     ->     9 
davidson 78 18  |r|= 0.833  e= [0.18220697 0.18800174 0.19105115 0.20900072 0.22324307 0.2234001
 0.23542597 0.23546611 0.23973915 0.2499608 ]  max|de|= 0.00579  lindep= 0.123
Old state -> New state
    8     ->     0 
    0     ->     1 
davidson 79 21  |r|= 1.15  e= [0.13915094 0.18220697 0.19105115 0.20900072 0.22324307 0.2234001
 0.23542597 0.23546611 0.23973872 0.27601553]  max|de|= -0.101  lindep= 0.232
Old state -> New state
    8     ->     9 
davidson 80 24  |r|=  1.1  e= [0.08852715 0.18220697 0.19105115 0.20900072 0.22324307 0.2234001
 0.23542597 0.23546611 0.23943552 0.23975246]  max|de|= -0.0506  lindep= 0.24
Old state -> New state
    2     ->     3 
    3     ->     4 
    4     ->     5 
    5     ->     6 
    6     ->     7 
    7     ->     8 
davidson 81 27  |r|= 0.936  e= [0.0023528  0.18220697 0.19083768 0.19105115 0.20900072 0.22324307
 0.2234001  0.23542597 0.23546611 0.23973894]  max|de|= -0.0862  lindep= 0.193
Old state -> New state
    9     ->     1 
    1     ->     2 
davidson 82 30  |r|= 1.38  e= [0.00360741 0.05011204 0.18220697 0.19105115 0.20900072 0.22324307
 0.2234001  0.23542597 0.23546611 0.23973872]  max|de|= -0.19  lindep= 0.0849
Old state -> New state
    2     ->     1 
    3     ->     2 
    4     ->     3 
    5     ->     4 
    6     ->     5 
    7     ->     6 
    8     ->     7 
    9     ->     8 
    1     ->     9 
davidson 83 32  |r|=  1.4  e= [0.02291869 0.18220697 0.19105115 0.20900072 0.22324307 0.2234001
 0.23542597 0.23546611 0.23973873 0.27618421]  max|de|= 0.226  lindep= 0.236
Old state -> New state
    0     ->     1 
    1     ->     2 
    2     ->     3 
    3     ->     4 
    4     ->     5 
    5     ->     6 
    6     ->     7 
    7     ->     8 
    8     ->     9 
davidson 84 34  |r|= 1.38  e= [0.02779785 0.14003945 0.18220697 0.19105115 0.20900072 0.22324307
 0.2234001  0.23542597 0.23546611 0.23973874]  max|de|= 0.117  lindep= 0.0676
Old state -> New state
    2     ->     1 
    3     ->     2 
    4     ->     3 
    5     ->     4 
    6     ->     5 
    7     ->     6 
    8     ->     7 
    9     ->     8 
    1     ->     9 
root 8 converged  |r|= 7.42e-07  e= 0.23973874397752004  max|de|= 6.54e-10
davidson 85 36  |r|= 1.38  e= [0.02945498 0.18220697 0.19105115 0.20900072 0.22324307 0.2234001
 0.23542597 0.23546611 0.23973874 0.2763832 ]  max|de|= 0.136  lindep= 0.0287
Old state -> New state
    0     ->     1 
    1     ->     2 
    2     ->     3 
    3     ->     4 
    4     ->     5 
    5     ->     6 
    6     ->     7 
    7     ->     8 
    8     ->     9 
davidson 86 38  |r|= 1.25  e= [0.00249933 0.12485911 0.18220697 0.19105115 0.20900072 0.22324307
 0.2234001  0.23542597 0.23546611 0.23973872]  max|de|= 0.0954  lindep= 0.0793
Old state -> New state
    2     ->     1 
    3     ->     2 
    4     ->     3 
    5     ->     4 
    6     ->     5 
    7     ->     6 
    8     ->     7 
    9     ->     8 
    1     ->     9 
davidson 87 40  |r|= 1.15  e= [0.09285212 0.18220697 0.19105115 0.20900072 0.22324307 0.2234001
 0.23542597 0.23546611 0.23973873 0.27642267]  max|de|= 0.152  lindep= 0.209
davidson 88 42  |r|= 1.04  e= [0.09503065 0.18220697 0.19105115 0.20900072 0.22324307 0.2234001
 0.23542597 0.23546611 0.23973876 0.26874891]  max|de|= -0.00767  lindep= 0.067
Old state -> New state
    1     ->     2 
    2     ->     3 
    3     ->     4 
    4     ->     5 
    5     ->     6 
    6     ->     7 
    7     ->     8 
    8     ->     9 
davidson 89 45  |r|= 1.01  e= [0.00749503 0.18076231 0.18220697 0.19105115 0.20900072 0.22324307
 0.2234001  0.23542597 0.23546611 0.23973874]  max|de|= -0.0875  lindep= 0.0944
Old state -> New state
    2     ->     0 
    4     ->     1 
    3     ->     2 
    4     ->     3 
    5     ->     4 
    6     ->     5 
    7     ->     6 
    8     ->     7 
    9     ->     8 
    0     ->     9 
root 8 converged  |r|= 2.03e-07  e= 0.23973874151463348  max|de|= 9.08e-10
davidson 90 47  |r|= 0.693  e= [0.18220697 0.18804151 0.19105115 0.20900072 0.22324307 0.2234001
 0.23542597 0.23546611 0.23973874 0.27606629]  max|de|= 0.269  lindep= 0.188
Old state -> New state
    1     ->     0 
    0     ->     1 
davidson 91 49  |r|= 0.658  e= [0.15449326 0.18220697 0.19105115 0.20900072 0.22324307 0.2234001
 0.23542597 0.23546611 0.23973874 0.27708359]  max|de|= -0.0335  lindep= 0.095
Old state -> New state
    0     ->     1 
    1     ->     2 
    2     ->     3 
    3     ->     4 
    4     ->     5 
    5     ->     6 
    6     ->     7 
    7     ->     8 
    8     ->     9 
root 9 converged  |r|= 1.43e-07  e= 0.23973873968608422  max|de|= 9.19e-10
davidson 92 51  |r|= 1.29  e= [0.05231954 0.15419253 0.18220697 0.19105115 0.20900072 0.22324307
 0.2234001  0.23542597 0.23546611 0.23973874]  max|de|= -0.102  lindep= 0.152
Old state -> New state
    2     ->     1 
davidson 93 53  |r|= 1.02  e= [0.0314106  0.18017917 0.18220697 0.19105115 0.20900072 0.22324307
 0.2234001  0.23542597 0.23546611 0.23973874]  max|de|= -0.0209  lindep= 0.079
Old state -> New state
    2     ->     1 
davidson 94 55  |r|= 0.947  e= [0.02774378 0.18220697 0.18855943 0.19105115 0.20900072 0.22324307
 0.2234001  0.23542597 0.23546611 0.23973874]  max|de|= 0.00635  lindep= 0.0281
Old state -> New state
    0     ->     1 
    1     ->     2 
davidson 95 57  |r|=  1.2  e= [0.01933303 0.12693474 0.18220697 0.19105115 0.20900072 0.22324307
 0.2234001  0.23542597 0.23546611 0.23973874]  max|de|= 0.0992  lindep= 0.0264
Old state -> New state
    2     ->     1 
    3     ->     2 
    4     ->     3 
    5     ->     4 
    6     ->     5 
    7     ->     6 
    8     ->     7 
    9     ->     8 
    0     ->     9 
davidson 96 59  |r|= 0.957  e= [0.16623803 0.18220696 0.19105115 0.20900074 0.22324308 0.2234001
 0.23542597 0.23546611 0.23973874 0.27615657]  max|de|= 0.257  lindep= 0.151
Old state -> New state
    1     ->     0 
    1     ->     2 
    2     ->     3 
    3     ->     4 
    4     ->     5 
    5     ->     6 
    6     ->     7 
    7     ->     8 
    8     ->     9 
davidson 97 65  |r|= 1.21  e= [0.11891726 0.18220693 0.18676413 0.19105115 0.20900073 0.22324307
 0.2234001  0.23542596 0.23546611 0.23973874]  max|de|= -0.0633  lindep= 0.119
Old state -> New state
    1     ->     0 
    3     ->     1 
    4     ->     2 
    4     ->     3 
    5     ->     4 
    6     ->     5 
    7     ->     6 
    8     ->     7 
    9     ->     8 
    2     ->     9 
root 1 converged  |r|= 9.53e-07  e= 0.1910511477987582  max|de|= 7.07e-10
davidson 98 73  |r|= 0.81  e= [0.18220701 0.19105115 0.209001   0.21602731 0.22324309 0.2234001
 0.23542596 0.23546611 0.23973873 0.26519668]  max|de|= 0.0784  lindep= 0.102
Old state -> New state
    4     ->     3 
    5     ->     4 
    6     ->     5 
    7     ->     6 
    8     ->     7 
davidson 99 80  |r|= 0.255  e= [0.1822071  0.19105116 0.20900041 0.22324297 0.2234001  0.23542591
 0.23546611 0.23973896 0.2727004  0.27501507]  max|de|= 0.033  lindep= 0.182
    CPU time for TDDFT   1556.33 sec, wall time     55.86 sec
TD-SCF states [0, 1, 2, 3, 5, 7, 8, 9] not converged.
Excited State energies (eV)
[4.95810779 5.19876677 5.68719074 6.07475057 6.07902632 6.40626519
 6.40735914 6.52362932 7.4205559  7.48354111]
