                  Welcome to Q-Chem
     A Quantum Leap Into The Future Of Chemistry


 Q-Chem 5.3 (devel), Q-Chem, Inc., Pleasanton, CA (2020)

 Yihan Shao,  Zhengting Gan,  E. Epifanovsky,  A. T. B. Gilbert,  M. Wormit,  
 J. Kussmann,  A. W. Lange,  A. Behn,  Jia Deng,  Xintian Feng,  D. Ghosh,  
 M. Goldey,  P. R. Horn,  L. D. Jacobson,  I. Kaliman,  T. Kus,  A. Landau,  
 Jie Liu,  E. I. Proynov,  R. M. Richard,  R. P. Steele,  E. J. Sundstrom,  
 H. L. Woodcock III,  P. M. Zimmerman,  D. Zuev,  B. Alam,  B. Albrecht,  
 E. Alguire,  S. A. Baeppler,  D. Barton,  Z. Benda,  Y. A. Bernard,  
 E. J. Berquist,  K. B. Bravaya,  H. Burton,  K. Carter-Fenk,  D. Casanova,  
 Chun-Min Chang,  Yunqing Chen,  A. Chien,  K. D. Closser,  M. P. Coons,  
 S. Coriani,  S. Dasgupta,  A. L. Dempwolff,  M. Diedenhofen,  Hainam Do,  
 R. G. Edgar,  Po-Tung Fang,  S. Faraji,  S. Fatehi,  Qingguo Feng,  
 J. Fosso-Tande,  J. Gayvert,  Qinghui Ge,  A. Ghysels,  G. Gidofalvi,  
 J. Gomes,  J. Gonthier,  A. Gunina,  D. Hait,  M. W. D. Hanson-Heine,  
 P. H. P. Harbach,  A. W. Hauser,  M. F. Herbst,  J. E. Herr,  
 E. G. Hohenstein,  Z. C. Holden,  Kerwin Hui,  B. C. Huynh,  T.-C. Jagau,  
 Hyunjun Ji,  B. Kaduk,  K. Khistyaev,  Jaehoon Kim,  P. Klunzinger,  K. Koh,  
 D. Kosenkov,  L. Koulias,  T. Kowalczyk,  C. M. Krauter,  A. Kunitsa,  
 Ka Un Lao,  A. Laurent,  K. V. Lawler,  Joonho Lee,  D. Lefrancois,  
 S. Lehtola,  D. S. Levine,  Yi-Pei Li,  You-Sheng Lin,  Fenglai Liu,  
 Kuan-Yu Liu,  E. Livshits,  M. Loipersberger,  A. Luenser,  P. Manohar,  
 E. Mansoor,  S. F. Manzer,  Shan-Ping Mao,  Yuezhi Mao,  N. Mardirossian,  
 A. V. Marenich,  T. Markovich,  L. A. Martinez-Martinez,  S. A. Maurer,  
 N. J. Mayhall,  S. C. McKenzie,  J.-M. Mewes,  P. Morgante,  A. F. Morrison,  
 J. W. Mullinax,  K. Nanda,  T. S. Nguyen-Beck,  R. Olivares-Amaya,  
 K. J. Oosterbaan,  J. A. Parkhill,  S. K. Paul,  F. Pavosevic,  Zheng Pei,  
 T. M. Perrine,  F. Plasser,  P. Pokhilko,  S. Prager,  A. Prociuk,  
 E. Ramos,  B. Rana,  D. R. Rehn,  F. Rob,  M. Scheurer,  M. Schneider,  
 N. Sergueev,  S. M. Sharada,  S. Sharma,  D. W. Small,  T. Stauch,  
 C. J. Stein,  T. Stein,  Yu-Chuan Su,  S. P. Veccham,  Zhen Tao,  
 A. J. W. Thom,  A. Tkatchenko,  T. Tsuchimochi,  N. M. Tubman,  L. Vogt,  
 M. L. Vidal,  O. Vydrov,  M. A. Watson,  J. Wenzel,  M. de Wergifosse,  
 T. A. Wesolowski,  A. White,  J. Witte,  A. Yamada,  Jun Yang,  K. Yao,  
 S. Yeganeh,  S. R. Yost,  Zhi-Qiang You,  A. Zech,  Igor Ying Zhang,  
 Xing Zhang,  Yan Zhao,  Ying Zhu,  B. R. Brooks,  G. K. L. Chan,  
 C. J. Cramer,  M. S. Gordon,  W. J. Hehre,  A. Klamt,  M. W. Schmidt,  
 C. D. Sherrill,  D. G. Truhlar,  A. Aspuru-Guzik,  R. Baer,  A. T. Bell,  
 N. A. Besley,  Jeng-Da Chai,  A. E. DePrince, III,  R. A. DiStasio Jr.,  
 A. Dreuw,  B. D. Dunietz,  T. R. Furlani,  Chao-Ping Hsu,  Yousung Jung,  
 Jing Kong,  D. S. Lambrecht,  WanZhen Liang,  C. Ochsenfeld,  
 V. A. Rassolov,  L. V. Slipchenko,  J. E. Subotnik,  T. Van Voorhis,  
 J. M. Herbert,  A. I. Krylov,  P. M. W. Gill,  M. Head-Gordon

 Contributors to earlier versions of Q-Chem not listed above: 
 R. D. Adamson,  B. Austin,  J. Baker,  G. J. O. Beran,  K. Brandhorst,  
 S. T. Brown,  E. F. C. Byrd,  A. K. Chakraborty,  C.-L. Cheng,  
 Siu Hung Chien,  D. M. Chipman,  D. L. Crittenden,  H. Dachsel,  
 R. J. Doerksen,  A. D. Dutoi,  L. Fusti-Molnar,  W. A. Goddard III,  
 A. Golubeva-Zadorozhnaya,  S. R. Gwaltney,  G. Hawkins,  A. Heyden,  
 S. Hirata,  G. Kedziora,  F. J. Keil,  C. Kelley,  Jihan Kim,  R. A. King,  
 R. Z. Khaliullin,  P. P. Korambath,  W. Kurlancheek,  A. M. Lee,  M. S. Lee,  
 S. V. Levchenko,  Ching Yeh Lin,  D. Liotard,  R. C. Lochan,  I. Lotan,  
 P. E. Maslen,  N. Nair,  D. P. O'Neill,  D. Neuhauser,  E. Neuscamman,  
 C. M. Oana,  R. Olson,  B. Peters,  R. Peverati,  P. A. Pieniazek,  
 Y. M. Rhee,  J. Ritchie,  M. A. Rohrdanz,  E. Rosta,  N. J. Russ,  
 H. F. Schaefer III,  N. E. Schultz,  N. Shenvi,  A. C. Simmonett,  A. Sodt,  
 D. Stuck,  K. S. Thanthiriwatte,  V. Vanovschi,  Tao Wang,  A. Warshel,  
 C. F. Williams,  Q. Wu,  X. Xu,  W. Zhang

 Please cite Q-Chem as follows:
 Y. Shao et al., Mol. Phys. 113, 184-215 (2015)
 DOI: 10.1080/00268976.2014.952696

 Q-Chem 5.3.0 for Intel X86 EM64T Linux

 Parts of Q-Chem use Armadillo 9.800.1 (Horizon Scraper).
 http://arma.sourceforge.net/

 Q-Chem begins on Mon Sep 26 17:53:41 2022  

Host: c193.oscer.ou.edu
0

     Scratch files written to /scratch/yangjunjie/qchem3920//
Processing $rem in /home/zhengpei/q-chem/new-trunk/config/preferences:
Processing $rem in /home/yangjunjie/.qchemrc:

Checking the input file for inconsistencies... 	...done.

--------------------------------------------------------------
User input:
--------------------------------------------------------------
$molecule
0 1
   C       0.0000000000     1.1660982027     1.0273552653
   C       0.0000000000     1.1946334528     2.4157604328
   C       0.0000000180    -0.0121639542     3.1095089387
   C       0.0000000000    -1.2069297484     2.3932025625
   C      -0.0000000116    -1.1526098051     1.0067050564
   N       0.0000000000     0.0134384443     0.3516673433
   C       0.0000000201     0.0047870381    -1.4977735385
   H       0.0000000272     2.0723357584     0.4322646461
   H      -0.0000000085     2.1442784132     2.9351282546
   H      -0.0000000204    -0.0221952055     4.1928532082
   H      -0.0000000275    -2.1658350290     2.8952524958
   H       0.0000000072    -2.0464911312     0.3926780136
   H      -0.0000000545     1.0703998494    -1.6459204808
   H      -0.9246984434    -0.5273334701    -1.6369976837
   H       0.9246984837    -0.5273334658    -1.6369976934
   Cl     -0.0000000136     0.0031832501    -3.9609413212
$end

$rem
   BASIS  =  6-311g**
   JOB_TYPE  =  FREQ
   METHOD  =  b3lyp
   SCF_CONVERGENCE  =  8
   GUI  =  2

   SYMMETRY_IGNORE  =  1
   SYMMETRY_INTEGRAL  =  0
   XC_GRID  =  3
$end

--------------------------------------------------------------
 ----------------------------------------------------------------
             Standard Nuclear Orientation (Angstroms)
    I     Atom           X                Y                Z
 ----------------------------------------------------------------
    1      C       0.0000000000     1.1660982027     1.0273552653
    2      C       0.0000000000     1.1946334528     2.4157604328
    3      C       0.0000000180    -0.0121639542     3.1095089387
    4      C       0.0000000000    -1.2069297484     2.3932025625
    5      C      -0.0000000116    -1.1526098051     1.0067050564
    6      N       0.0000000000     0.0134384443     0.3516673433
    7      C       0.0000000201     0.0047870381    -1.4977735385
    8      H       0.0000000272     2.0723357584     0.4322646461
    9      H      -0.0000000085     2.1442784132     2.9351282546
   10      H      -0.0000000204    -0.0221952055     4.1928532082
   11      H      -0.0000000275    -2.1658350290     2.8952524958
   12      H       0.0000000072    -2.0464911312     0.3926780136
   13      H      -0.0000000545     1.0703998494    -1.6459204808
   14      H      -0.9246984434    -0.5273334701    -1.6369976837
   15      H       0.9246984837    -0.5273334658    -1.6369976934
   16      Cl     -0.0000000136     0.0031832501    -3.9609413212
 ----------------------------------------------------------------
 Nuclear Repulsion Energy =         378.80430196 hartrees
 There are       34 alpha and       34 beta electrons
 Requested basis set is 6-311G(d,p)
 There are 79 shells and 200 basis functions

 Total QAlloc Memory Limit   2000 MB
 Mega-Array Size       188 MB
 MEM_STATIC part       192 MB
 A cutoff of  1.0D-11 yielded   2533 shell pairs
 There are     16920 function pairs (     18300 Cartesian)
 Smallest overlap matrix eigenvalue = 4.83E-04
 Guess from superposition of atomic densities
 Warning:  Energy on first SCF cycle will be non-variational
 SAD guess density has 68.000000 electrons

 -----------------------------------------------------------------------
  General SCF calculation program by
  Eric Jon Sundstrom, Paul Horn, Yuezhi Mao, Dmitri Zuev, Alec White,
  David Stuck, Shaama M.S., Shane Yost, Joonho Lee, David Small,
  Daniel Levine, Susi Lehtola, Hugh Burton, Evgeny Epifanovsky,
  Bang C. Huynh
 -----------------------------------------------------------------------
 Exchange:     0.2000 Hartree-Fock + 0.0800 Slater + 0.7200 B88
 Correlation:  0.1900 VWN1RPA + 0.8100 LYP
 Using SG-3 standard quadrature grid
 using 20 threads for integral computing
 -------------------------------------------------------
 OpenMP Integral computing Module                
 Release: version 2.0, May 2017, Q-Chem Inc. Pleasanton 
 -------------------------------------------------------
 A restricted SCF calculation will be
 performed using DIIS
 SCF converges when DIIS error is below 1.0e-08
 ---------------------------------------
  Cycle       Energy         DIIS error
 ---------------------------------------
    1    -749.8239422920      4.57e-02  
    2    -748.3130256861      4.62e-03  
    3    -746.7545668554      1.31e-02  
    4    -748.3512053587      3.82e-03  
    5    -748.4390893381      6.16e-04  
    6    -748.4417222500      4.76e-04  
    7    -748.4427649347      1.23e-04  
    8    -748.4428380141      2.60e-05  
    9    -748.4428396339      2.09e-05  
   10    -748.4428416738      3.95e-06  
   11    -748.4428417540      1.41e-06  
   12    -748.4428417638      3.51e-07  
   13    -748.4428417644      6.68e-08  
   14    -748.4428417639      1.84e-08  
   15    -748.4428417638      1.44e-08  
   16    -748.4428417635      2.08e-09  Convergence criterion met
 ---------------------------------------
 SCF time:   CPU 196.40s  wall 9.00s 
 SCF   energy in the final basis set =     -748.4428417635
 Total energy in the final basis set =     -748.4428417635
 
 --------------------------------------------------------------
 
                    Orbital Energies (a.u.)
 --------------------------------------------------------------
 
 Alpha MOs
 -- Occupied --
******** -14.4163 -10.2800 -10.2797 -10.2563 -10.2479 -10.2478 -10.2357
 -9.3167  -7.0777  -7.0743  -7.0743  -1.0347  -0.8776  -0.8386  -0.7346
 -0.7092  -0.6938  -0.6542  -0.5948  -0.5592  -0.5360  -0.5037  -0.4901
 -0.4794  -0.4456  -0.4413  -0.4367  -0.3917  -0.3597  -0.3348  -0.2080
 -0.1982  -0.1979
 -- Virtual --
 -0.1033  -0.0835  -0.0126   0.0213   0.0314   0.0426   0.0617   0.0653
  0.0692   0.0989   0.1237   0.1392   0.1850   0.2031   0.2178   0.2275
  0.2497   0.2685   0.2700   0.3125   0.3226   0.3321   0.3478   0.3506
  0.3630   0.3708   0.3757   0.3865   0.3980   0.4264   0.4380   0.4578
  0.4692   0.4825   0.4955   0.5088   0.5265   0.5426   0.5538   0.5850
  0.5873   0.5935   0.6059   0.6646   0.6758   0.6764   0.6886   0.7067
  0.7175   0.7424   0.7800   0.8214   0.8798   0.8851   0.8878   0.9475
  0.9618   0.9818   1.0018   1.0054   1.0062   1.0126   1.0173   1.0408
  1.0745   1.0818   1.1253   1.1894   1.2131   1.2476   1.2921   1.3218
  1.3805   1.3903   1.3909   1.4160   1.4431   1.4486   1.4725   1.4823
  1.4986   1.5220   1.5745   1.6294   1.6323   1.6406   1.6567   1.7045
  1.7088   1.7151   1.7601   1.7987   1.8119   1.8343   1.8487   1.8581
  1.8687   1.9160   1.9715   1.9851   1.9854   2.0294   2.0424   2.0959
  2.1301   2.1452   2.1929   2.2493   2.2502   2.2528   2.3100   2.3364
  2.3627   2.3883   2.4312   2.4402   2.4665   2.4839   2.5103   2.5235
  2.5308   2.5513   2.5724   2.5803   2.5812   2.5986   2.6034   2.6383
  2.6906   2.6920   2.7044   2.7921   2.8594   2.8654   2.8821   2.9056
  3.0135   3.0878   3.1245   3.2631   3.3480   3.3927   3.5580   3.5663
  3.6846   3.7272   3.7706   3.8072   3.9205   3.9601   4.0022   4.3301
  4.4233   5.1519   9.5893  23.5526  23.8332  23.8659  23.9382  24.0259
 24.0829  25.5401  25.5472  25.8547  35.5329 215.5636
 --------------------------------------------------------------
 
          Ground-State Mulliken Net Atomic Charges

     Atom                 Charge (a.u.)
  ----------------------------------------
      1 C                     0.185720
      2 C                    -0.198870
      3 C                     0.034293
      4 C                    -0.196045
      5 C                     0.180547
      6 N                    -0.401595
      7 C                    -0.202821
      8 H                     0.148164
      9 H                     0.133001
     10 H                     0.131972
     11 H                     0.133128
     12 H                     0.149731
     13 H                     0.171715
     14 H                     0.190809
     15 H                     0.190809
     16 Cl                   -0.650557
  ----------------------------------------
  Sum of atomic charges =     0.000000

 -----------------------------------------------------------------
                    Cartesian Multipole Moments
 -----------------------------------------------------------------
    Charge (ESU x 10^10)
                 0.0000
    Dipole Moment (Debye)
         X       0.0000      Y      -0.0417      Z      14.7620
       Tot      14.7620
    Quadrupole Moments (Debye-Ang)
        XX     -58.3288     XY      -0.0000     YY     -47.2512
        XZ      -0.0000     YZ       0.0718     ZZ     -92.1679
    Octopole Moments (Debye-Ang^2)
       XXX       0.0000    XXY      -1.1506    XYY       0.0000
       YYY       0.7423    XXZ       5.8671    XYZ       0.0000
       YYZ      24.2478    XZZ       0.0000    YZZ      -0.2430
       ZZZ     282.4010
    Hexadecapole Moments (Debye-Ang^3)
      XXXX     -73.1269   XXXY      -0.0000   XXYY     -68.1249
      XYYY      -0.0000   YYYY    -265.4266   XXXZ      -0.0000
      XXYZ       2.1024   XYYZ      -0.0000   YYYZ      -0.9997
      XXZZ    -439.3193   XYZZ      -0.0000   YYZZ    -429.0672
      XZZZ      -0.0000   YZZZ       1.0889   ZZZZ   -3042.6443
 -----------------------------------------------------------------
 Calculating MO derivatives via CPSCF
    1     0    51    0.0390399  
    2     0    51    0.0093542  
    3     0    51    0.0016081  
    4     9    42    0.0001007  
    5    49     2    0.0000059  
    6    51     0    0.0000002  Converged
 Time for AOints: 40.6 s (CPU) 2.2 s (wall)
 ------------------------------------------------------------------------------
                     AOints        : Timing summary (seconds)
 ------------------------------------------------------------------------------
     job step          cpu (% of tot)      sys (% of tot)     wall (% of tot)
 ------------------------------------------------------------------------------
  AOints            0.4065E+02 ( 4.0)   0.6200E-04 ( 2.1)   0.2186E+01 ( 4.2)
 ------------------------------------------------------------------------------
   Grand Totals     0.1010E+04          0.2958E-02          0.5198E+02
 ------------------------------------------------------------------------------
 Polarizability Matrix (a.u.)
            1           2           3
    1 -41.6274884   0.0000000  -0.0000005
    2   0.0000000 -82.7063199  -0.3684252
    3  -0.0000005  -0.3684252-170.4328775
 Calculating analytic Hessian of the SCF energy
 
 Direct stationary perturbation theory relativistic correction:
 
 rels  =       0.843778878300
 relv  =      -3.129598736128
 rel2e =       0.776640945024
 E_rel =      -1.509178912804
 
 Hessian of the SCF Energy
            1           2           3           4           5           6
    1   0.1536253   0.0000000  -0.0000000  -0.0688061  -0.0000000   0.0000000
    2   0.0000000   0.7311789  -0.0555378   0.0000000  -0.1347628   0.0391713
    3  -0.0000000  -0.0555378   0.7113737   0.0000000  -0.0295352  -0.3339596
    4  -0.0688061   0.0000000   0.0000000   0.1335296  -0.0000000  -0.0000000
    5  -0.0000000  -0.1347628  -0.0295352  -0.0000000   0.7386942   0.0405302
    6   0.0000000   0.0391713  -0.3339596  -0.0000000   0.0405302   0.6826977
    7   0.0077692  -0.0000000   0.0000000  -0.0643998   0.0000000  -0.0000000
    8  -0.0000000   0.0428575   0.0793203   0.0000000  -0.2885702   0.0582221
    9  -0.0000000   0.0329848  -0.0267772  -0.0000000   0.1210391  -0.1855000
   10  -0.0088323  -0.0000000  -0.0000000   0.0065559  -0.0000000   0.0000000
   11   0.0000000  -0.0176392  -0.0228701  -0.0000000  -0.0548776   0.0178639
   12   0.0000000  -0.0416707  -0.0557508  -0.0000000  -0.0202635   0.0693080
   13   0.0064417  -0.0000000  -0.0000000  -0.0085671  -0.0000000   0.0000000
   14  -0.0000000  -0.0905837  -0.0319762   0.0000000  -0.0190619   0.0426103
   15  -0.0000000   0.0283372   0.0630262  -0.0000000   0.0236438  -0.0543149
   16  -0.0678312  -0.0000000   0.0000000   0.0171489   0.0000000  -0.0000000
   17  -0.0000000  -0.2857598  -0.0621831  -0.0000000   0.0285568  -0.0995637
   18   0.0000000  -0.1037245  -0.1920288   0.0000000  -0.0390196  -0.0346824
   19   0.0003879  -0.0000000  -0.0000000   0.0046650  -0.0000000   0.0000000
   20   0.0000000   0.0018946  -0.0137376   0.0000000  -0.0018296  -0.0007368
   21  -0.0000000  -0.0232523  -0.0000293   0.0000000   0.0057843   0.0050617
   22  -0.0410602  -0.0000000   0.0000000   0.0067757   0.0000000  -0.0000000
   23  -0.0000000  -0.2443242   0.1291202  -0.0000000   0.0062227  -0.0028005
   24   0.0000000   0.1333155  -0.1500841   0.0000000   0.0254017  -0.0095369
   25   0.0015641  -0.0000000  -0.0000000  -0.0378670   0.0000000   0.0000000
   26  -0.0000000   0.0039512   0.0022001   0.0000000  -0.2772528  -0.1203093
   27   0.0000000  -0.0289868  -0.0083169   0.0000000  -0.1195113  -0.1253488
   28   0.0084954   0.0000000  -0.0000000   0.0054885   0.0000000  -0.0000000
   29   0.0000000  -0.0048085   0.0028096  -0.0000000   0.0048208   0.0281860
   30   0.0000000   0.0028521   0.0005060   0.0000000  -0.0021517  -0.0099102
   31  -0.0005435   0.0000000   0.0000000   0.0076446   0.0000000  -0.0000000
   32   0.0000000   0.0000995  -0.0009838  -0.0000000  -0.0026151  -0.0037456
   33   0.0000000  -0.0015613  -0.0011000   0.0000000  -0.0035334  -0.0012069
   34   0.0088441  -0.0000000   0.0000000  -0.0006013  -0.0000000   0.0000000
   35   0.0000000  -0.0015309   0.0039077  -0.0000000   0.0002588  -0.0001333
   36   0.0000000   0.0041149  -0.0010656   0.0000000   0.0008010  -0.0004300
   37   0.0001346   0.0000000  -0.0000000  -0.0000036  -0.0000000   0.0000000
   38   0.0000000   0.0018967  -0.0000963   0.0000000   0.0002678   0.0002586
   39   0.0000000   0.0037926   0.0000309  -0.0000000  -0.0007928   0.0000836
   40   0.0000333  -0.0002320   0.0005472  -0.0005732   0.0001046   0.0002704
   41  -0.0000196  -0.0011485  -0.0007361  -0.0000511  -0.0001027   0.0002280
   42  -0.0005989   0.0022321  -0.0022840   0.0007243  -0.0006228  -0.0007090
   43   0.0000333   0.0002320  -0.0005472  -0.0005732  -0.0001046  -0.0002704
   44   0.0000196  -0.0011485  -0.0007361   0.0000511  -0.0001027   0.0002280
   45   0.0005989   0.0022321  -0.0022840  -0.0007243  -0.0006228  -0.0007090
   46  -0.0002552   0.0000000  -0.0000000  -0.0004166  -0.0000000  -0.0000000
   47  -0.0000000  -0.0001722   0.0010344  -0.0000000   0.0003543  -0.0000091
   48   0.0000000   0.0057008  -0.0012563   0.0000000  -0.0011468  -0.0008429
            7           8           9          10          11          12
    1   0.0077692  -0.0000000  -0.0000000  -0.0088323   0.0000000   0.0000000
    2  -0.0000000   0.0428575   0.0329848  -0.0000000  -0.0176392  -0.0416707
    3   0.0000000   0.0793203  -0.0267772  -0.0000000  -0.0228701  -0.0557508
    4  -0.0643998   0.0000000  -0.0000000   0.0065559  -0.0000000  -0.0000000
    5   0.0000000  -0.2885702   0.1210391  -0.0000000  -0.0548776  -0.0202635
    6  -0.0000000   0.0582221  -0.1855000   0.0000000   0.0178639   0.0693080
    7   0.1448059   0.0000000  -0.0000000  -0.0642978  -0.0000000  -0.0000000
    8   0.0000000   0.6611552  -0.0018107  -0.0000000  -0.2835899  -0.0590325
    9  -0.0000000  -0.0018107   0.7528244  -0.0000000  -0.1218526  -0.1881273
   10  -0.0642978  -0.0000000  -0.0000000   0.1330549   0.0000000  -0.0000000
   11  -0.0000000  -0.2835899  -0.1218526   0.0000000   0.7386259  -0.0406349
   12  -0.0000000  -0.0590325  -0.1881273  -0.0000000  -0.0406349   0.6831556
   13   0.0076049   0.0000000  -0.0000000  -0.0677398  -0.0000000  -0.0000000
   14   0.0000000   0.0451244  -0.0316152  -0.0000000  -0.1349516  -0.0353964
   15   0.0000000  -0.0777513  -0.0289631  -0.0000000   0.0330497  -0.3371393
   16  -0.0096161  -0.0000000  -0.0000000   0.0172637   0.0000000   0.0000000
   17  -0.0000000  -0.0836770  -0.0007265   0.0000000   0.0265123   0.1005015
   18  -0.0000000  -0.0001423   0.0045142   0.0000000   0.0393926  -0.0332597
   19  -0.0005755  -0.0000000  -0.0000000   0.0027427   0.0000000   0.0000000
   20  -0.0000000  -0.0006356  -0.0004666  -0.0000000  -0.0024029   0.0014127
   21   0.0000000  -0.0007388  -0.0016055   0.0000000  -0.0049178   0.0062599
   22   0.0071963  -0.0000000  -0.0000000  -0.0006318   0.0000000   0.0000000
   23  -0.0000000   0.0008037  -0.0011803   0.0000000   0.0002384   0.0001209
   24   0.0000000  -0.0012853  -0.0055033   0.0000000  -0.0007671  -0.0004597
   25   0.0035427   0.0000000   0.0000000   0.0077446  -0.0000000  -0.0000000
   26   0.0000000  -0.0173644  -0.0146545   0.0000000  -0.0027415   0.0037223
   27  -0.0000000   0.0157824   0.0125930  -0.0000000   0.0034935  -0.0010726
   28  -0.0429275  -0.0000000   0.0000000   0.0054268  -0.0000000  -0.0000000
   29  -0.0000000  -0.0602607   0.0025746   0.0000000   0.0052964  -0.0278830
   30   0.0000000   0.0025935  -0.3408750   0.0000000   0.0024405  -0.0103620
   31   0.0034766  -0.0000000   0.0000000  -0.0378409  -0.0000000   0.0000000
   32  -0.0000000  -0.0173010   0.0140984  -0.0000000  -0.2815913   0.1174866
   33  -0.0000000  -0.0163188   0.0125606   0.0000000   0.1166569  -0.1210739
   34   0.0072903   0.0000000  -0.0000000   0.0067788  -0.0000000  -0.0000000
   35   0.0000000   0.0007205   0.0013091   0.0000000   0.0067321   0.0031526
   36   0.0000000   0.0014074  -0.0054577   0.0000000  -0.0250765  -0.0099045
   37  -0.0000435   0.0000000   0.0000000   0.0003418  -0.0000000   0.0000000
   38  -0.0000000   0.0000954  -0.0000026   0.0000000   0.0003744  -0.0003751
   39  -0.0000000   0.0002566   0.0001657   0.0000000   0.0009479  -0.0005686
   40   0.0000579   0.0001392   0.0001933  -0.0001153   0.0002279  -0.0002036
   41   0.0000219   0.0003772   0.0001393   0.0000224  -0.0001780  -0.0005651
   42  -0.0001058  -0.0002262   0.0000657   0.0004367   0.0005457  -0.0001494
   43   0.0000579  -0.0001392  -0.0001933  -0.0001153  -0.0002279   0.0002036
   44  -0.0000219   0.0003772   0.0001393  -0.0000224  -0.0001780  -0.0005651
   45   0.0001058  -0.0002262   0.0000657  -0.0004367   0.0005457  -0.0001494
   46   0.0000586  -0.0000000   0.0000000  -0.0003361   0.0000000  -0.0000000
   47   0.0000000  -0.0001123   0.0000244  -0.0000000   0.0003705  -0.0000104
   48  -0.0000000  -0.0000502   0.0000196   0.0000000   0.0011825  -0.0007062
           13          14          15          16          17          18
    1   0.0064417  -0.0000000  -0.0000000  -0.0678312  -0.0000000   0.0000000
    2  -0.0000000  -0.0905837   0.0283372  -0.0000000  -0.2857598  -0.1037245
    3  -0.0000000  -0.0319762   0.0630262   0.0000000  -0.0621831  -0.1920288
    4  -0.0085671   0.0000000  -0.0000000   0.0171489  -0.0000000   0.0000000
    5  -0.0000000  -0.0190619   0.0236438   0.0000000   0.0285568  -0.0390196
    6   0.0000000   0.0426103  -0.0543149  -0.0000000  -0.0995637  -0.0346824
    7   0.0076049   0.0000000   0.0000000  -0.0096161  -0.0000000  -0.0000000
    8   0.0000000   0.0451244  -0.0777513  -0.0000000  -0.0836770  -0.0001423
    9  -0.0000000  -0.0316152  -0.0289631  -0.0000000  -0.0007265   0.0045142
   10  -0.0677398  -0.0000000  -0.0000000   0.0172637   0.0000000   0.0000000
   11  -0.0000000  -0.1349516   0.0330497   0.0000000   0.0265123   0.0393926
   12  -0.0000000  -0.0353964  -0.3371393   0.0000000   0.1005015  -0.0332597
   13   0.1530846  -0.0000000  -0.0000000  -0.0688737  -0.0000000   0.0000000
   14  -0.0000000   0.7259150   0.0570333  -0.0000000  -0.2874262   0.1002666
   15  -0.0000000   0.0570333   0.7172158   0.0000000   0.0592091  -0.1864111
   16  -0.0688737  -0.0000000   0.0000000   0.1304944   0.0000000  -0.0000000
   17  -0.0000000  -0.2874262   0.0592091   0.0000000   0.7085710   0.0036341
   18   0.0000000   0.1002666  -0.1864111  -0.0000000   0.0036341   0.4542479
   19   0.0006796   0.0000000  -0.0000000  -0.0415176   0.0000000  -0.0000000
   20  -0.0000000   0.0011356   0.0150952   0.0000000  -0.0523373   0.0010634
   21   0.0000000   0.0229311  -0.0019632  -0.0000000   0.0007235   0.0560143
   22   0.0088132   0.0000000   0.0000000  -0.0011640   0.0000000  -0.0000000
   23  -0.0000000  -0.0013576  -0.0038519  -0.0000000  -0.0319739   0.0107761
   24   0.0000000  -0.0041745  -0.0012787  -0.0000000  -0.0168000   0.0135520
   25  -0.0006222  -0.0000000   0.0000000   0.0079702   0.0000000   0.0000000
   26  -0.0000000   0.0000472   0.0009995   0.0000000   0.0020172   0.0008799
   27   0.0000000   0.0015755  -0.0010223   0.0000000  -0.0004674  -0.0074380
   28   0.0083722  -0.0000000  -0.0000000  -0.0024811   0.0000000   0.0000000
   29  -0.0000000  -0.0047060  -0.0029178  -0.0000000  -0.0011942   0.0000042
   30   0.0000000  -0.0029505   0.0003966  -0.0000000  -0.0000175   0.0005715
   31   0.0014747   0.0000000  -0.0000000   0.0082152  -0.0000000  -0.0000000
   32   0.0000000   0.0034583  -0.0019795  -0.0000000   0.0020093  -0.0007122
   33   0.0000000   0.0292270  -0.0078145  -0.0000000   0.0005738  -0.0074115
   34  -0.0412237   0.0000000   0.0000000  -0.0016353  -0.0000000  -0.0000000
   35   0.0000000  -0.2387867  -0.1306558   0.0000000  -0.0319897  -0.0116804
   36   0.0000000  -0.1350333  -0.1560013  -0.0000000   0.0169661   0.0139867
   37   0.0004498  -0.0000000   0.0000000  -0.0014176  -0.0000000  -0.0000000
   38  -0.0000000  -0.0006632  -0.0006542  -0.0000000   0.0021805  -0.0027937
   39  -0.0000000  -0.0020469  -0.0040861  -0.0000000   0.0186123  -0.0179785
   40   0.0001825   0.0002225  -0.0003462   0.0043782   0.0021434   0.0018961
   41  -0.0001144   0.0011016   0.0007105   0.0023433   0.0002879   0.0011610
   42  -0.0002630  -0.0024779  -0.0001969  -0.0145722  -0.0099905  -0.0194360
   43   0.0001825  -0.0002225   0.0003462   0.0043782  -0.0021434  -0.0018961
   44   0.0001144   0.0011016   0.0007105  -0.0023433   0.0002879   0.0011610
   45   0.0002630  -0.0024779  -0.0001969   0.0145722  -0.0099905  -0.0194360
   46  -0.0002591  -0.0000000  -0.0000000   0.0046878   0.0000000  -0.0000000
   47   0.0000000  -0.0003468  -0.0009786   0.0000000   0.0039351  -0.0002662
   48   0.0000000  -0.0054948  -0.0012502   0.0000000  -0.0004810  -0.0248048
           19          20          21          22          23          24
    1   0.0003879   0.0000000  -0.0000000  -0.0410602  -0.0000000   0.0000000
    2  -0.0000000   0.0018946  -0.0232523  -0.0000000  -0.2443242   0.1333155
    3  -0.0000000  -0.0137376  -0.0000293   0.0000000   0.1291202  -0.1500841
    4   0.0046650   0.0000000   0.0000000   0.0067757  -0.0000000   0.0000000
    5  -0.0000000  -0.0018296   0.0057843   0.0000000   0.0062227   0.0254017
    6   0.0000000  -0.0007368   0.0050617  -0.0000000  -0.0028005  -0.0095369
    7  -0.0005755  -0.0000000   0.0000000   0.0071963  -0.0000000   0.0000000
    8  -0.0000000  -0.0006356  -0.0007388  -0.0000000   0.0008037  -0.0012853
    9  -0.0000000  -0.0004666  -0.0016055  -0.0000000  -0.0011803  -0.0055033
   10   0.0027427  -0.0000000   0.0000000  -0.0006318   0.0000000   0.0000000
   11   0.0000000  -0.0024029  -0.0049178   0.0000000   0.0002384  -0.0007671
   12   0.0000000   0.0014127   0.0062599   0.0000000   0.0001209  -0.0004597
   13   0.0006796  -0.0000000   0.0000000   0.0088132  -0.0000000   0.0000000
   14   0.0000000   0.0011356   0.0229311   0.0000000  -0.0013576  -0.0041745
   15  -0.0000000   0.0150952  -0.0019632   0.0000000  -0.0038519  -0.0012787
   16  -0.0415176   0.0000000  -0.0000000  -0.0011640  -0.0000000  -0.0000000
   17   0.0000000  -0.0523373   0.0007235   0.0000000  -0.0319739  -0.0168000
   18  -0.0000000   0.0010634   0.0560143  -0.0000000   0.0107761   0.0135520
   19   0.6754448  -0.0000000  -0.0000000  -0.0025103   0.0000000   0.0000000
   20  -0.0000000   0.6899350  -0.0057553  -0.0000000  -0.0001120  -0.0022378
   21  -0.0000000  -0.0057553  -0.0572928   0.0000000   0.0032916   0.0002121
   22  -0.0025103  -0.0000000   0.0000000   0.0263030   0.0000000  -0.0000000
   23   0.0000000  -0.0001120   0.0032916   0.0000000   0.2697105  -0.1342737
   24   0.0000000  -0.0022378   0.0002121  -0.0000000  -0.1342737   0.1517959
   25   0.0002808  -0.0000000   0.0000000  -0.0033660   0.0000000  -0.0000000
   26   0.0000000   0.0000751   0.0002183  -0.0000000   0.0003607  -0.0002971
   27  -0.0000000  -0.0005071   0.0022548   0.0000000   0.0002903   0.0007106
   28  -0.0006267   0.0000000  -0.0000000  -0.0005129  -0.0000000  -0.0000000
   29  -0.0000000   0.0000801   0.0000020   0.0000000   0.0002253   0.0013114
   30  -0.0000000   0.0000506   0.0002840  -0.0000000  -0.0002932  -0.0004785
   31   0.0001340   0.0000000   0.0000000  -0.0015116   0.0000000  -0.0000000
   32  -0.0000000   0.0000614  -0.0002471   0.0000000   0.0000220   0.0000884
   33  -0.0000000   0.0006083   0.0022339   0.0000000   0.0001680   0.0000518
   34  -0.0006492   0.0000000   0.0000000   0.0007196  -0.0000000   0.0000000
   35  -0.0000000   0.0004792  -0.0029184   0.0000000  -0.0006933  -0.0007127
   36  -0.0000000   0.0013921   0.0002194   0.0000000   0.0006861   0.0005611
   37  -0.0512224   0.0000000  -0.0000000   0.0003419  -0.0000000  -0.0000000
   38   0.0000000  -0.3655337   0.0428506  -0.0000000   0.0003414   0.0004587
   39  -0.0000000   0.0362690  -0.0155080  -0.0000000  -0.0012414  -0.0001137
   40  -0.2886154  -0.1360545  -0.0336696   0.0002463   0.0000815   0.0000897
   41  -0.1355028  -0.1301466  -0.0190661  -0.0000833   0.0002275  -0.0001652
   42  -0.0311159  -0.0162677  -0.0137570  -0.0003486  -0.0002103  -0.0001016
   43  -0.2886154   0.1360545   0.0336696   0.0002463  -0.0000815  -0.0000897
   44   0.1355028  -0.1301466  -0.0190661   0.0000833   0.0002275  -0.0001652
   45   0.0311159  -0.0162677  -0.0137570   0.0003486  -0.0002103  -0.0001016
   46  -0.0100022   0.0000000   0.0000000   0.0001147  -0.0000000   0.0000000
   47  -0.0000000  -0.0105169   0.0001607   0.0000000   0.0000811   0.0003030
   48   0.0000000   0.0000853   0.0313727  -0.0000000  -0.0003915   0.0007747
           25          26          27          28          29          30
    1   0.0015641  -0.0000000   0.0000000   0.0084954   0.0000000   0.0000000
    2  -0.0000000   0.0039512  -0.0289868   0.0000000  -0.0048085   0.0028521
    3  -0.0000000   0.0022001  -0.0083169  -0.0000000   0.0028096   0.0005060
    4  -0.0378670   0.0000000   0.0000000   0.0054885  -0.0000000   0.0000000
    5   0.0000000  -0.2772528  -0.1195113   0.0000000   0.0048208  -0.0021517
    6   0.0000000  -0.1203093  -0.1253488  -0.0000000   0.0281860  -0.0099102
    7   0.0035427   0.0000000  -0.0000000  -0.0429275  -0.0000000   0.0000000
    8   0.0000000  -0.0173644   0.0157824  -0.0000000  -0.0602607   0.0025935
    9   0.0000000  -0.0146545   0.0125930   0.0000000   0.0025746  -0.3408750
   10   0.0077446   0.0000000  -0.0000000   0.0054268   0.0000000   0.0000000
   11  -0.0000000  -0.0027415   0.0034935  -0.0000000   0.0052964   0.0024405
   12  -0.0000000   0.0037223  -0.0010726  -0.0000000  -0.0278830  -0.0103620
   13  -0.0006222  -0.0000000   0.0000000   0.0083722  -0.0000000   0.0000000
   14  -0.0000000   0.0000472   0.0015755  -0.0000000  -0.0047060  -0.0029505
   15   0.0000000   0.0009995  -0.0010223  -0.0000000  -0.0029178   0.0003966
   16   0.0079702   0.0000000   0.0000000  -0.0024811  -0.0000000  -0.0000000
   17   0.0000000   0.0020172  -0.0004674   0.0000000  -0.0011942  -0.0000175
   18   0.0000000   0.0008799  -0.0074380   0.0000000   0.0000042   0.0005715
   19   0.0002808   0.0000000  -0.0000000  -0.0006267  -0.0000000  -0.0000000
   20  -0.0000000   0.0000751  -0.0005071   0.0000000   0.0000801   0.0000506
   21   0.0000000   0.0002183   0.0022548  -0.0000000   0.0000020   0.0002840
   22  -0.0033660  -0.0000000   0.0000000  -0.0005129   0.0000000  -0.0000000
   23   0.0000000   0.0003607   0.0002903  -0.0000000   0.0002253  -0.0002932
   24  -0.0000000  -0.0002971   0.0007106  -0.0000000   0.0013114  -0.0004785
   25   0.0261400  -0.0000000  -0.0000000  -0.0040268   0.0000000  -0.0000000
   26  -0.0000000   0.2906555   0.1281549  -0.0000000   0.0009313   0.0000790
   27  -0.0000000   0.1281549   0.1276981   0.0000000  -0.0005430   0.0007097
   28  -0.0040268  -0.0000000   0.0000000   0.0272363   0.0000000  -0.0000000
   29   0.0000000   0.0009313  -0.0005430   0.0000000   0.0583760  -0.0027857
   30  -0.0000000   0.0000790   0.0007097  -0.0000000  -0.0027857   0.3590164
   31   0.0001549   0.0000000   0.0000000  -0.0039605  -0.0000000  -0.0000000
   32   0.0000000  -0.0006977   0.0008085   0.0000000   0.0009236  -0.0000765
   33   0.0000000  -0.0008303   0.0004655  -0.0000000   0.0005518   0.0007143
   34  -0.0015361  -0.0000000   0.0000000  -0.0005299  -0.0000000  -0.0000000
   35  -0.0000000   0.0000268  -0.0001646   0.0000000   0.0002491   0.0003078
   36   0.0000000  -0.0000886   0.0000588  -0.0000000  -0.0012994  -0.0004957
   37   0.0000592   0.0000000  -0.0000000   0.0000002  -0.0000000   0.0000000
   38  -0.0000000  -0.0000118  -0.0000324   0.0000000   0.0000314  -0.0000050
   39  -0.0000000  -0.0000110  -0.0001347   0.0000000  -0.0000813   0.0000097
   40  -0.0000093   0.0000214   0.0000748   0.0000131   0.0000192   0.0000090
   41  -0.0000749  -0.0000018   0.0000213  -0.0000491   0.0000102  -0.0000205
   42   0.0001088   0.0000014  -0.0002754  -0.0001000   0.0000342   0.0000029
   43  -0.0000093  -0.0000214  -0.0000748   0.0000131  -0.0000192  -0.0000090
   44   0.0000749  -0.0000018   0.0000213   0.0000491   0.0000102  -0.0000205
   45  -0.0001088   0.0000014  -0.0002754   0.0001000   0.0000342   0.0000029
   46  -0.0000197  -0.0000000  -0.0000000   0.0000200   0.0000000   0.0000000
   47  -0.0000000   0.0000066   0.0000651  -0.0000000   0.0000151  -0.0000024
   48  -0.0000000  -0.0000659  -0.0006066   0.0000000   0.0000022  -0.0000927
           31          32          33          34          35          36
    1  -0.0005435   0.0000000   0.0000000   0.0088441   0.0000000   0.0000000
    2   0.0000000   0.0000995  -0.0015613  -0.0000000  -0.0015309   0.0041149
    3   0.0000000  -0.0009838  -0.0011000   0.0000000   0.0039077  -0.0010656
    4   0.0076446  -0.0000000   0.0000000  -0.0006013  -0.0000000   0.0000000
    5   0.0000000  -0.0026151  -0.0035334  -0.0000000   0.0002588   0.0008010
    6  -0.0000000  -0.0037456  -0.0012069   0.0000000  -0.0001333  -0.0004300
    7   0.0034766  -0.0000000  -0.0000000   0.0072903   0.0000000   0.0000000
    8  -0.0000000  -0.0173010  -0.0163188   0.0000000   0.0007205   0.0014074
    9   0.0000000   0.0140984   0.0125606  -0.0000000   0.0013091  -0.0054577
   10  -0.0378409  -0.0000000   0.0000000   0.0067788   0.0000000   0.0000000
   11  -0.0000000  -0.2815913   0.1166569  -0.0000000   0.0067321  -0.0250765
   12   0.0000000   0.1174866  -0.1210739  -0.0000000   0.0031526  -0.0099045
   13   0.0014747   0.0000000   0.0000000  -0.0412237   0.0000000   0.0000000
   14   0.0000000   0.0034583   0.0292270   0.0000000  -0.2387867  -0.1350333
   15  -0.0000000  -0.0019795  -0.0078145   0.0000000  -0.1306558  -0.1560013
   16   0.0082152  -0.0000000  -0.0000000  -0.0016353   0.0000000  -0.0000000
   17  -0.0000000   0.0020093   0.0005738  -0.0000000  -0.0319897   0.0169661
   18  -0.0000000  -0.0007122  -0.0074115  -0.0000000  -0.0116804   0.0139867
   19   0.0001340  -0.0000000  -0.0000000  -0.0006492  -0.0000000  -0.0000000
   20   0.0000000   0.0000614   0.0006083   0.0000000   0.0004792   0.0013921
   21   0.0000000  -0.0002471   0.0022339   0.0000000  -0.0029184   0.0002194
   22  -0.0015116   0.0000000   0.0000000   0.0007196   0.0000000   0.0000000
   23   0.0000000   0.0000220   0.0001680  -0.0000000  -0.0006933   0.0006861
   24  -0.0000000   0.0000884   0.0000518   0.0000000  -0.0007127   0.0005611
   25   0.0001549   0.0000000   0.0000000  -0.0015361  -0.0000000   0.0000000
   26   0.0000000  -0.0006977  -0.0008303  -0.0000000   0.0000268  -0.0000886
   27   0.0000000   0.0008085   0.0004655   0.0000000  -0.0001646   0.0000588
   28  -0.0039605   0.0000000  -0.0000000  -0.0005299   0.0000000  -0.0000000
   29  -0.0000000   0.0009236   0.0005518  -0.0000000   0.0002491  -0.0012994
   30  -0.0000000  -0.0000765   0.0007143  -0.0000000   0.0003078  -0.0004957
   31   0.0261512   0.0000000  -0.0000000  -0.0033998  -0.0000000  -0.0000000
   32   0.0000000   0.2952629  -0.1251329   0.0000000   0.0003608   0.0002942
   33  -0.0000000  -0.1251329   0.1231119  -0.0000000  -0.0003083   0.0007157
   34  -0.0033998   0.0000000  -0.0000000   0.0265065  -0.0000000  -0.0000000
   35  -0.0000000   0.0003608  -0.0003083  -0.0000000   0.2641525   0.1362110
   36  -0.0000000   0.0002942   0.0007157  -0.0000000   0.1362110   0.1569226
   37  -0.0001145   0.0000000   0.0000000  -0.0001038   0.0000000   0.0000000
   38   0.0000000   0.0000192  -0.0000918  -0.0000000   0.0002617  -0.0000839
   39   0.0000000  -0.0000118  -0.0003541  -0.0000000   0.0000375  -0.0001711
   40   0.0000474  -0.0000219   0.0000065  -0.0002218   0.0002440  -0.0004467
   41   0.0000563  -0.0000099   0.0000317  -0.0001200  -0.0001565  -0.0000460
   42   0.0000255   0.0000175  -0.0001500  -0.0002228   0.0006372   0.0002088
   43   0.0000474   0.0000219  -0.0000065  -0.0002218  -0.0002440   0.0004467
   44  -0.0000563  -0.0000099   0.0000317   0.0001200  -0.0001565  -0.0000460
   45  -0.0000255   0.0000175  -0.0001500   0.0002228   0.0006372   0.0002088
   46   0.0000248  -0.0000000  -0.0000000  -0.0000165   0.0000000   0.0000000
   47   0.0000000   0.0000078  -0.0000722  -0.0000000   0.0000720  -0.0001990
   48  -0.0000000   0.0000784  -0.0005927  -0.0000000   0.0003734   0.0006441
           37          38          39          40          41          42
    1   0.0001346   0.0000000   0.0000000   0.0000333  -0.0000196  -0.0005989
    2   0.0000000   0.0018967   0.0037926  -0.0002320  -0.0011485   0.0022321
    3  -0.0000000  -0.0000963   0.0000309   0.0005472  -0.0007361  -0.0022840
    4  -0.0000036   0.0000000  -0.0000000  -0.0005732  -0.0000511   0.0007243
    5  -0.0000000   0.0002678  -0.0007928   0.0001046  -0.0001027  -0.0006228
    6   0.0000000   0.0002586   0.0000836   0.0002704   0.0002280  -0.0007090
    7  -0.0000435  -0.0000000  -0.0000000   0.0000579   0.0000219  -0.0001058
    8   0.0000000   0.0000954   0.0002566   0.0001392   0.0003772  -0.0002262
    9   0.0000000  -0.0000026   0.0001657   0.0001933   0.0001393   0.0000657
   10   0.0003418   0.0000000   0.0000000  -0.0001153   0.0000224   0.0004367
   11  -0.0000000   0.0003744   0.0009479   0.0002279  -0.0001780   0.0005457
   12   0.0000000  -0.0003751  -0.0005686  -0.0002036  -0.0005651  -0.0001494
   13   0.0004498  -0.0000000  -0.0000000   0.0001825  -0.0001144  -0.0002630
   14  -0.0000000  -0.0006632  -0.0020469   0.0002225   0.0011016  -0.0024779
   15   0.0000000  -0.0006542  -0.0040861  -0.0003462   0.0007105  -0.0001969
   16  -0.0014176  -0.0000000  -0.0000000   0.0043782   0.0023433  -0.0145722
   17  -0.0000000   0.0021805   0.0186123   0.0021434   0.0002879  -0.0099905
   18  -0.0000000  -0.0027937  -0.0179785   0.0018961   0.0011610  -0.0194360
   19  -0.0512224   0.0000000  -0.0000000  -0.2886154  -0.1355028  -0.0311159
   20   0.0000000  -0.3655337   0.0362690  -0.1360545  -0.1301466  -0.0162677
   21  -0.0000000   0.0428506  -0.0155080  -0.0336696  -0.0190661  -0.0137570
   22   0.0003419  -0.0000000  -0.0000000   0.0002463  -0.0000833  -0.0003486
   23  -0.0000000   0.0003414  -0.0012414   0.0000815   0.0002275  -0.0002103
   24  -0.0000000   0.0004587  -0.0001137   0.0000897  -0.0001652  -0.0001016
   25   0.0000592  -0.0000000  -0.0000000  -0.0000093  -0.0000749   0.0001088
   26   0.0000000  -0.0000118  -0.0000110   0.0000214  -0.0000018   0.0000014
   27  -0.0000000  -0.0000324  -0.0001347   0.0000748   0.0000213  -0.0002754
   28   0.0000002   0.0000000   0.0000000   0.0000131  -0.0000491  -0.0001000
   29  -0.0000000   0.0000314  -0.0000813   0.0000192   0.0000102   0.0000342
   30   0.0000000  -0.0000050   0.0000097   0.0000090  -0.0000205   0.0000029
   31  -0.0001145   0.0000000   0.0000000   0.0000474   0.0000563   0.0000255
   32   0.0000000   0.0000192  -0.0000118  -0.0000219  -0.0000099   0.0000175
   33   0.0000000  -0.0000918  -0.0003541   0.0000065   0.0000317  -0.0001500
   34  -0.0001038  -0.0000000  -0.0000000  -0.0002218  -0.0001200  -0.0002228
   35   0.0000000   0.0002617   0.0000375   0.0002440  -0.0001565   0.0006372
   36   0.0000000  -0.0000839  -0.0001711  -0.0004467  -0.0000460   0.0002088
   37   0.0433431  -0.0000000   0.0000000   0.0043834  -0.0225309   0.0036429
   38  -0.0000000   0.3724635  -0.0431397   0.0031769  -0.0064668   0.0019569
   39   0.0000000  -0.0431397   0.0495520   0.0001103  -0.0039169   0.0018928
   40   0.0043834   0.0031769   0.0001103   0.2914808   0.1422338   0.0351715
   41  -0.0225309  -0.0064668  -0.0039169   0.1422338   0.1257592   0.0200791
   42   0.0036429   0.0019569   0.0018928   0.0351715   0.0200791   0.0471578
   43   0.0043834  -0.0031769  -0.0001103  -0.0123329   0.0131546   0.0032834
   44   0.0225309  -0.0064668  -0.0039169  -0.0131546   0.0102815   0.0019610
   45  -0.0036429   0.0019569   0.0018928  -0.0032834   0.0019610   0.0019358
   46  -0.0005320  -0.0000000  -0.0000000   0.0010451   0.0007136   0.0039341
   47  -0.0000000   0.0012102  -0.0047573   0.0008488   0.0001655   0.0023303
   48   0.0000000  -0.0002070  -0.0147128  -0.0004194   0.0001839  -0.0142045
           43          44          45          46          47          48
    1   0.0000333   0.0000196   0.0005989  -0.0002552  -0.0000000   0.0000000
    2   0.0002320  -0.0011485   0.0022321   0.0000000  -0.0001722   0.0057008
    3  -0.0005472  -0.0007361  -0.0022840  -0.0000000   0.0010344  -0.0012563
    4  -0.0005732   0.0000511  -0.0007243  -0.0004166  -0.0000000   0.0000000
    5  -0.0001046  -0.0001027  -0.0006228  -0.0000000   0.0003543  -0.0011468
    6  -0.0002704   0.0002280  -0.0007090  -0.0000000  -0.0000091  -0.0008429
    7   0.0000579  -0.0000219   0.0001058   0.0000586   0.0000000  -0.0000000
    8  -0.0001392   0.0003772  -0.0002262  -0.0000000  -0.0001123  -0.0000502
    9  -0.0001933   0.0001393   0.0000657   0.0000000   0.0000244   0.0000196
   10  -0.0001153  -0.0000224  -0.0004367  -0.0003361  -0.0000000   0.0000000
   11  -0.0002279  -0.0001780   0.0005457   0.0000000   0.0003705   0.0011825
   12   0.0002036  -0.0005651  -0.0001494  -0.0000000  -0.0000104  -0.0007062
   13   0.0001825   0.0001144   0.0002630  -0.0002591   0.0000000   0.0000000
   14  -0.0002225   0.0011016  -0.0024779  -0.0000000  -0.0003468  -0.0054948
   15   0.0003462   0.0007105  -0.0001969  -0.0000000  -0.0009786  -0.0012502
   16   0.0043782  -0.0023433   0.0145722   0.0046878   0.0000000   0.0000000
   17  -0.0021434   0.0002879  -0.0099905   0.0000000   0.0039351  -0.0004810
   18  -0.0018961   0.0011610  -0.0194360  -0.0000000  -0.0002662  -0.0248048
   19  -0.2886154   0.1355028   0.0311159  -0.0100022  -0.0000000   0.0000000
   20   0.1360545  -0.1301466  -0.0162677   0.0000000  -0.0105169   0.0000853
   21   0.0336696  -0.0190661  -0.0137570   0.0000000   0.0001607   0.0313727
   22   0.0002463   0.0000833   0.0003486   0.0001147   0.0000000  -0.0000000
   23  -0.0000815   0.0002275  -0.0002103  -0.0000000   0.0000811  -0.0003915
   24  -0.0000897  -0.0001652  -0.0001016   0.0000000   0.0003030   0.0007747
   25  -0.0000093   0.0000749  -0.0001088  -0.0000197  -0.0000000  -0.0000000
   26  -0.0000214  -0.0000018   0.0000014  -0.0000000   0.0000066  -0.0000659
   27  -0.0000748   0.0000213  -0.0002754  -0.0000000   0.0000651  -0.0006066
   28   0.0000131   0.0000491   0.0001000   0.0000200  -0.0000000   0.0000000
   29  -0.0000192   0.0000102   0.0000342   0.0000000   0.0000151   0.0000022
   30  -0.0000090  -0.0000205   0.0000029   0.0000000  -0.0000024  -0.0000927
   31   0.0000474  -0.0000563  -0.0000255   0.0000248   0.0000000  -0.0000000
   32   0.0000219  -0.0000099   0.0000175  -0.0000000   0.0000078   0.0000784
   33  -0.0000065   0.0000317  -0.0001500  -0.0000000  -0.0000722  -0.0005927
   34  -0.0002218   0.0001200   0.0002228  -0.0000165  -0.0000000  -0.0000000
   35  -0.0002440  -0.0001565   0.0006372   0.0000000   0.0000720   0.0003734
   36   0.0004467  -0.0000460   0.0002088   0.0000000  -0.0001990   0.0006441
   37   0.0043834   0.0225309  -0.0036429  -0.0005320  -0.0000000   0.0000000
   38  -0.0031769  -0.0064668   0.0019569  -0.0000000   0.0012102  -0.0002070
   39  -0.0001103  -0.0039169   0.0018928  -0.0000000  -0.0047573  -0.0147128
   40  -0.0123329  -0.0131546  -0.0032834   0.0010451   0.0008488  -0.0004194
   41   0.0131546   0.0102815   0.0019610   0.0007136   0.0001655   0.0001839
   42   0.0032834   0.0019610   0.0019358   0.0039341   0.0023303  -0.0142045
   43   0.2914808  -0.1422338  -0.0351715   0.0010451  -0.0008488   0.0004194
   44  -0.1422338   0.1257592   0.0200791  -0.0007136   0.0001655   0.0001839
   45  -0.0351715   0.0200791   0.0471578  -0.0039341   0.0023303  -0.0142045
   46   0.0010451  -0.0007136  -0.0039341   0.0048413   0.0000000  -0.0000000
   47  -0.0008488   0.0001655   0.0023303   0.0000000   0.0047645   0.0000469
   48   0.0004194   0.0001839  -0.0142045  -0.0000000   0.0000469   0.0404632
 **********************************************************************
 **                                                                  **
 **                       VIBRATIONAL ANALYSIS                       **
 **                       --------------------                       **
 **                                                                  **
 **        VIBRATIONAL FREQUENCIES (CM**-1) AND NORMAL MODES         **
 **     FORCE CONSTANTS (mDYN/ANGSTROM) AND REDUCED MASSES (AMU)     **
 **                  INFRARED INTENSITIES (KM/MOL)                   **
 **                                                                  **
 **********************************************************************
 

 Mode:                 1                      2                      3
 Frequency:      -440.84                  19.90                  60.12
 Force Cnst:      1.2941                 0.0003                 0.0072
 Red. Mass:      11.3020                 1.1682                 3.3766
 IR Active:          YES                    YES                    YES
 IR Intens:     1309.174                  0.020                  2.574
 Raman Active:       YES                    YES                    YES
               X      Y      Z        X      Y      Z        X      Y      Z
 C          0.000  0.012 -0.095    0.008  0.000  0.000    0.139  0.000  0.000
 C         -0.000 -0.015 -0.089   -0.048  0.000  0.000   -0.073 -0.000  0.000
 C         -0.000  0.002 -0.063   -0.049  0.000  0.000   -0.206 -0.000  0.000
 C         -0.000  0.014 -0.086    0.004 -0.000 -0.000   -0.104 -0.000 -0.000
 C          0.000 -0.017 -0.089    0.059  0.000 -0.000    0.109  0.000 -0.000
 N          0.000 -0.003 -0.158    0.060  0.000 -0.000    0.217  0.000  0.000
 C         -0.000  0.007  0.916    0.022 -0.000 -0.000    0.182  0.000 -0.000
 H          0.000  0.006 -0.088    0.009  0.000  0.000    0.235  0.000  0.000
 H         -0.000 -0.001 -0.117   -0.087 -0.000  0.000   -0.141 -0.000  0.000
 H         -0.000  0.003 -0.064   -0.091 -0.000 -0.000   -0.386 -0.000 -0.000
 H         -0.000  0.003 -0.111    0.005 -0.000 -0.000   -0.196 -0.000 -0.000
 H          0.000 -0.013 -0.080    0.101  0.000 -0.000    0.179  0.000 -0.000
 H         -0.000 -0.088  0.095    0.586  0.000 -0.000   -0.203 -0.000  0.000
 H          0.076  0.048  0.076   -0.263  0.489  0.018    0.363 -0.326  0.050
 H         -0.076  0.048  0.076   -0.263 -0.489 -0.018    0.363  0.326 -0.050
 Cl        -0.000 -0.000 -0.100   -0.022  0.000  0.000   -0.109 -0.000  0.000
 TransDip   0.000 -0.001  1.159    0.005  0.000 -0.000    0.051  0.000 -0.000

 Mode:                 4                      5                      6
 Frequency:        79.11                 186.50                 252.19
 Force Cnst:      0.0186                 0.3051                 0.1311
 Red. Mass:       5.0374                14.8869                 3.4995
 IR Active:          YES                    YES                    YES
 IR Intens:        5.334                 24.052                  4.622
 Raman Active:       YES                    YES                    YES
               X      Y      Z        X      Y      Z        X      Y      Z
 C          0.000 -0.125 -0.151    0.000  0.011 -0.244   -0.141  0.000 -0.000
 C         -0.000  0.065 -0.157    0.000  0.015 -0.254   -0.032 -0.000 -0.000
 C         -0.000  0.158  0.004   -0.000  0.003 -0.273    0.133 -0.000 -0.000
 C         -0.000  0.062  0.163   -0.000 -0.012 -0.252   -0.017  0.000 -0.000
 C          0.000 -0.127  0.153    0.000 -0.013 -0.240   -0.144  0.000 -0.000
 N          0.000 -0.213 -0.001    0.000 -0.002 -0.190   -0.088 -0.000 -0.000
 C          0.000 -0.241 -0.002   -0.000 -0.011  0.005    0.382 -0.000  0.000
 H          0.000 -0.205 -0.272    0.000 -0.010 -0.279   -0.193  0.000 -0.000
 H         -0.000  0.136 -0.287   -0.000  0.006 -0.239   -0.018 -0.000 -0.000
 H         -0.000  0.302  0.005   -0.000  0.005 -0.274    0.327 -0.000  0.000
 H         -0.000  0.130  0.293   -0.000 -0.002 -0.232    0.012  0.000 -0.000
 H          0.000 -0.211  0.275    0.000  0.008 -0.273   -0.207 -0.000 -0.000
 H         -0.000 -0.237  0.045   -0.000 -0.007  0.063    0.500  0.000 -0.000
 H          0.001 -0.239 -0.028   -0.002 -0.018  0.068    0.377  0.067 -0.160
 H         -0.001 -0.239 -0.028    0.002 -0.018  0.068    0.377 -0.067  0.160
 Cl        -0.000  0.173 -0.003    0.000  0.004  0.540   -0.061 -0.000  0.000
 TransDip   0.000 -0.074  0.002   -0.000 -0.002 -0.157    0.069 -0.000  0.000

 Mode:                 7                      8                      9
 Frequency:       334.31                 389.76                 447.89
 Force Cnst:      0.2277                 0.2344                 0.4207
 Red. Mass:       3.4583                 2.6189                 3.5597
 IR Active:          YES                    YES                    YES
 IR Intens:        1.564                  0.001                  4.697
 Raman Active:       YES                    YES                    YES
               X      Y      Z        X      Y      Z        X      Y      Z
 C          0.000 -0.117 -0.064    0.193 -0.000 -0.000   -0.065 -0.000  0.000
 C          0.000 -0.006 -0.079   -0.189 -0.000  0.000   -0.165 -0.000  0.000
 C         -0.000  0.046  0.003   -0.008  0.000 -0.000    0.242  0.000 -0.000
 C         -0.000 -0.005  0.080    0.199 -0.000 -0.000   -0.155  0.000  0.000
 C          0.000 -0.116  0.063   -0.185  0.000  0.000   -0.079  0.000  0.000
 N         -0.000 -0.137 -0.005   -0.006 -0.000  0.000    0.297 -0.000  0.000
 C          0.000  0.381 -0.005   -0.004  0.000 -0.000   -0.084  0.000 -0.000
 H          0.000 -0.153 -0.116    0.518 -0.000  0.000   -0.197  0.000  0.000
 H          0.000  0.036 -0.158   -0.404 -0.000 -0.000   -0.377 -0.000  0.000
 H         -0.000  0.120  0.003   -0.022 -0.000 -0.000    0.557  0.000  0.000
 H         -0.000  0.034  0.157    0.416 -0.000  0.000   -0.358  0.000  0.000
 H          0.000 -0.159  0.124   -0.498 -0.000 -0.000   -0.235 -0.000  0.000
 H          0.000  0.426  0.243   -0.006  0.000  0.000   -0.151 -0.000 -0.000
 H          0.001  0.426 -0.136   -0.007  0.003  0.007   -0.103 -0.027  0.180
 H         -0.001  0.426 -0.136   -0.007 -0.003 -0.007   -0.103  0.027 -0.180
 Cl        -0.000 -0.041  0.003    0.001 -0.000 -0.000    0.014 -0.000  0.000
 TransDip  -0.000  0.040 -0.005    0.001  0.000 -0.000   -0.069  0.000 -0.000

 Mode:                10                     11                     12
 Frequency:       633.62                 663.15                 710.04
 Force Cnst:      1.5138                 1.6540                 0.5175
 Red. Mass:       6.3995                 6.3837                 1.7422
 IR Active:          YES                    YES                    YES
 IR Intens:       43.343                  0.100                 48.343
 Raman Active:       YES                    YES                    YES
               X      Y      Z        X      Y      Z        X      Y      Z
 C         -0.000  0.186  0.033    0.000 -0.224  0.229    0.084  0.000 -0.000
 C          0.000  0.237 -0.026   -0.000  0.233  0.253   -0.133 -0.000 -0.000
 C         -0.000  0.007 -0.382    0.000  0.157  0.007    0.059 -0.000 -0.000
 C         -0.000 -0.230 -0.032   -0.000  0.244 -0.248   -0.132 -0.000  0.000
 C         -0.000 -0.199  0.024    0.000 -0.214 -0.234    0.085  0.000  0.000
 N          0.000 -0.007  0.361   -0.000 -0.134 -0.006   -0.108  0.000  0.000
 C         -0.000  0.005  0.033   -0.000 -0.022 -0.000   -0.001 -0.000  0.000
 H         -0.000  0.010 -0.242    0.000 -0.278  0.152    0.533 -0.000  0.000
 H          0.000  0.080  0.261    0.000  0.336  0.070    0.194  0.000 -0.000
 H          0.000  0.004 -0.383    0.000 -0.274  0.003    0.546  0.000  0.000
 H         -0.000 -0.073  0.268    0.000  0.339 -0.072    0.192 -0.000  0.000
 H         -0.000 -0.018 -0.247    0.000 -0.273 -0.154    0.523  0.000  0.000
 H         -0.000  0.024  0.183   -0.000 -0.019  0.035    0.000 -0.000  0.000
 H         -0.019  0.001  0.202   -0.000 -0.019 -0.019    0.007  0.001 -0.051
 H          0.019  0.001  0.202    0.000 -0.019 -0.019    0.007 -0.001  0.051
 Cl         0.000 -0.000 -0.031    0.000  0.000  0.000   -0.001  0.000 -0.000
 TransDip  -0.000  0.000 -0.211    0.000 -0.010  0.003    0.223 -0.000  0.000

 Mode:                13                     14                     15
 Frequency:       768.40                 893.73                 966.29
 Force Cnst:      0.5733                 0.5869                 0.7216
 Red. Mass:       1.6481                 1.2472                 1.3117
 IR Active:          YES                    YES                    YES
 IR Intens:       32.462                  0.007                  0.404
 Raman Active:       YES                    YES                    YES
               X      Y      Z        X      Y      Z        X      Y      Z
 C         -0.110 -0.000 -0.000    0.073 -0.000 -0.000   -0.101  0.000 -0.000
 C          0.022  0.000 -0.000    0.074 -0.000 -0.000    0.036 -0.000 -0.000
 C         -0.123 -0.000  0.000   -0.000  0.000  0.000    0.077 -0.000  0.000
 C          0.023 -0.000 -0.000   -0.076  0.000 -0.000    0.028  0.000 -0.000
 C         -0.110  0.000  0.000   -0.072 -0.000 -0.000   -0.095 -0.000 -0.000
 N          0.123 -0.000 -0.000    0.001  0.000  0.000    0.018  0.000  0.000
 C         -0.002  0.000 -0.000   -0.002  0.000  0.000    0.008  0.000 -0.000
 H          0.136 -0.000  0.000   -0.430  0.000 -0.000    0.583 -0.000 -0.000
 H          0.616  0.000 -0.000   -0.548 -0.000  0.000   -0.185 -0.000  0.000
 H          0.362  0.000  0.000    0.005  0.000  0.000   -0.471  0.000 -0.000
 H          0.610 -0.000 -0.000    0.560 -0.000 -0.000   -0.151  0.000  0.000
 H          0.133  0.000  0.000    0.423  0.000  0.000    0.565  0.000 -0.000
 H         -0.029 -0.000 -0.000    0.008  0.000 -0.000   -0.026 -0.000 -0.000
 H         -0.019 -0.002  0.110    0.002 -0.004 -0.006   -0.015  0.007  0.130
 H         -0.019  0.002 -0.110    0.002  0.004  0.006   -0.015 -0.007 -0.130
 Cl         0.002 -0.000  0.000   -0.000 -0.000 -0.000    0.001  0.000 -0.000
 TransDip   0.182 -0.000  0.000    0.003  0.000  0.000    0.020  0.000 -0.000

 Mode:                16                     17                     18
 Frequency:       999.44                1003.20                1029.47
 Force Cnst:      1.7422                 0.8566                 0.7523
 Red. Mass:       2.9602                 1.4446                 1.2047
 IR Active:          YES                    YES                    YES
 IR Intens:      126.945                  0.000                  4.650
 Raman Active:       YES                    YES                    YES
               X      Y      Z        X      Y      Z        X      Y      Z
 C          0.000 -0.100  0.003    0.103 -0.000  0.000   -0.000  0.010  0.009
 C         -0.000 -0.189 -0.136   -0.090  0.000  0.000   -0.000 -0.007  0.003
 C          0.000  0.008 -0.015    0.002 -0.000 -0.000    0.000 -0.029 -0.046
 C         -0.000  0.180 -0.118    0.093 -0.000  0.000   -0.000  0.051 -0.031
 C         -0.000  0.074 -0.004   -0.111 -0.000 -0.000   -0.000  0.071  0.037
 N          0.000  0.005  0.225    0.003  0.000 -0.000    0.000 -0.030  0.019
 C         -0.000  0.019 -0.003   -0.003  0.000  0.000   -0.000 -0.056  0.002
 H         -0.000 -0.107  0.006   -0.513  0.000  0.000    0.000  0.007  0.003
 H          0.000 -0.128 -0.278    0.426  0.000 -0.000    0.000 -0.057  0.091
 H         -0.000  0.035 -0.024   -0.011  0.000 -0.000   -0.000 -0.121 -0.051
 H          0.000  0.145 -0.212   -0.443  0.000  0.000    0.000  0.020 -0.103
 H          0.000  0.096 -0.026    0.563  0.000 -0.000    0.000  0.031  0.106
 H          0.000  0.040  0.191    0.009 -0.000 -0.000    0.000  0.049  0.794
 H         -0.038 -0.043  0.550    0.004 -0.003 -0.033   -0.019  0.071 -0.379
 H          0.038 -0.043  0.550    0.004  0.003  0.033    0.019  0.071 -0.379
 Cl        -0.000  0.001 -0.019   -0.000  0.000  0.000   -0.000 -0.004 -0.001
 TransDip  -0.000  0.010 -0.361   -0.000  0.000  0.000   -0.000 -0.057 -0.039

 Mode:                19                     20                     21
 Frequency:      1031.54                1036.64                1051.36
 Force Cnst:      0.8353                 0.6980                 2.4247
 Red. Mass:       1.3323                 1.1024                 3.7231
 IR Active:          YES                    YES                    YES
 IR Intens:        0.015                  2.071                 14.677
 Raman Active:       YES                    YES                    YES
               X      Y      Z        X      Y      Z        X      Y      Z
 C         -0.020 -0.000  0.000   -0.025  0.000 -0.000    0.000  0.192 -0.171
 C          0.082 -0.000 -0.000    0.009  0.000  0.000    0.000  0.037 -0.028
 C         -0.124 -0.000 -0.000    0.002  0.000  0.000   -0.000 -0.014  0.329
 C          0.081  0.000 -0.000    0.004 -0.000  0.000    0.000 -0.018 -0.044
 C         -0.019  0.000  0.000   -0.017 -0.000 -0.000    0.000 -0.157 -0.158
 N         -0.009 -0.000  0.000    0.058  0.000 -0.000   -0.000 -0.014  0.121
 C          0.002 -0.000  0.000   -0.060  0.000 -0.000    0.000 -0.023 -0.009
 H          0.157 -0.000  0.000    0.117  0.000 -0.000   -0.000  0.043 -0.430
 H         -0.464 -0.000  0.000   -0.028  0.000 -0.000   -0.000  0.126 -0.161
 H          0.705 -0.000  0.000   -0.024  0.000  0.000    0.000 -0.056  0.349
 H         -0.456  0.000 -0.000    0.003 -0.000  0.000   -0.000 -0.141 -0.251
 H          0.156  0.000  0.000    0.061 -0.000 -0.000   -0.000 -0.021 -0.382
 H         -0.006  0.000  0.000    0.096 -0.000 -0.000   -0.000  0.031  0.403
 H         -0.003  0.003  0.024    0.056 -0.030 -0.691   -0.024  0.033 -0.059
 H         -0.003 -0.003 -0.024    0.056  0.030  0.691    0.024  0.033 -0.059
 Cl         0.000 -0.000 -0.000   -0.003  0.000  0.000    0.000 -0.001 -0.004
 TransDip  -0.004  0.000 -0.000   -0.046  0.000  0.000    0.000 -0.013 -0.122

 Mode:                22                     23                     24
 Frequency:      1083.34                1107.82                1170.14
 Force Cnst:      1.3516                 1.1246                 1.0075
 Red. Mass:       1.9547                 1.5552                 1.2489
 IR Active:          YES                    YES                    YES
 IR Intens:       22.892                  0.299                  3.702
 Raman Active:       YES                    YES                    YES
               X      Y      Z        X      Y      Z        X      Y      Z
 C          0.000  0.140 -0.021   -0.000 -0.035  0.102    0.000  0.015 -0.030
 C          0.000 -0.148  0.004    0.000 -0.064 -0.060   -0.000  0.021  0.041
 C         -0.000 -0.001 -0.033    0.000  0.078  0.002    0.000  0.002 -0.003
 C          0.000  0.151  0.004   -0.000 -0.060  0.058   -0.000 -0.021  0.035
 C          0.000 -0.140 -0.020    0.000 -0.040 -0.104    0.000 -0.016 -0.022
 N          0.000 -0.000  0.002   -0.000  0.059  0.001   -0.000  0.001 -0.112
 C         -0.000  0.001  0.001   -0.000 -0.030  0.000    0.000 -0.004 -0.030
 H         -0.000  0.220  0.094    0.000  0.156  0.404   -0.000  0.065  0.034
 H          0.000 -0.397  0.445   -0.000  0.049 -0.283    0.000 -0.077  0.227
 H          0.000 -0.011 -0.042   -0.000  0.542  0.006   -0.000  0.003 -0.001
 H          0.000  0.390  0.446    0.000  0.058  0.299    0.000  0.061  0.201
 H         -0.000 -0.230  0.105   -0.000  0.153 -0.399   -0.000 -0.062  0.036
 H          0.000 -0.024 -0.196    0.000  0.003  0.267   -0.000  0.070  0.574
 H          0.016  0.008 -0.149   -0.010  0.019 -0.138   -0.062 -0.019  0.513
 H         -0.016  0.008 -0.149    0.010  0.019 -0.138    0.062 -0.019  0.513
 Cl        -0.000  0.000  0.006    0.000 -0.001  0.000    0.000 -0.000 -0.012
 TransDip  -0.000  0.002  0.153    0.000  0.017  0.005    0.000 -0.004 -0.061

 Mode:                25                     26                     27
 Frequency:      1180.78                1233.92                1311.92
 Force Cnst:      0.9339                 1.0998                 6.3868
 Red. Mass:       1.1369                 1.2260                 6.2982
 IR Active:          YES                    YES                    YES
 IR Intens:        2.079                 13.711                  2.160
 Raman Active:       YES                    YES                    YES
               X      Y      Z        X      Y      Z        X      Y      Z
 C          0.000 -0.016 -0.014    0.000  0.077  0.043   -0.000 -0.167 -0.238
 C         -0.000 -0.026  0.043    0.000  0.004 -0.040    0.000 -0.135  0.201
 C          0.000  0.076  0.000    0.000  0.000 -0.003   -0.000  0.224  0.000
 C          0.000 -0.023 -0.046    0.000 -0.003 -0.041   -0.000 -0.125 -0.207
 C         -0.000 -0.015  0.015   -0.000 -0.079  0.043    0.000 -0.168  0.239
 N          0.000 -0.000  0.003   -0.000  0.001 -0.022    0.000  0.348  0.009
 C         -0.000  0.001  0.000    0.000  0.000 -0.008   -0.000 -0.021  0.000
 H         -0.000 -0.071 -0.100    0.000  0.353  0.458   -0.000 -0.024 -0.059
 H          0.000 -0.243  0.438   -0.000  0.174 -0.350    0.000  0.156 -0.334
 H         -0.000  0.669  0.005    0.000 -0.004 -0.004   -0.000 -0.425 -0.006
 H         -0.000 -0.235 -0.450   -0.000 -0.166 -0.352   -0.000  0.151  0.324
 H          0.000 -0.073  0.101    0.000 -0.360  0.449    0.000 -0.009  0.046
 H         -0.000  0.000 -0.003   -0.000  0.006  0.052    0.000  0.007  0.226
 H          0.003 -0.001 -0.013   -0.004 -0.006  0.060    0.006 -0.003 -0.140
 H         -0.003 -0.001 -0.013    0.004 -0.006  0.060   -0.006 -0.003 -0.140
 Cl        -0.000 -0.000  0.000   -0.000  0.000 -0.000    0.000 -0.000  0.000
 TransDip  -0.000  0.046 -0.003    0.000  0.001  0.119    0.000  0.046 -0.010

 Mode:                28                     29                     30
 Frequency:      1382.78                1388.57                1396.68
 Force Cnst:      1.3716                 1.2416                 1.2592
 Red. Mass:       1.2175                 1.0929                 1.0956
 IR Active:          YES                    YES                    YES
 IR Intens:        2.436                 10.924                  8.266
 Raman Active:       YES                    YES                    YES
               X      Y      Z        X      Y      Z        X      Y      Z
 C          0.000 -0.026 -0.055   -0.001  0.000  0.000    0.000  0.000  0.004
 C          0.000  0.018 -0.028   -0.001 -0.000  0.000    0.000 -0.003  0.003
 C          0.000  0.077  0.000   -0.000 -0.000 -0.000    0.000 -0.002 -0.003
 C         -0.000  0.017  0.029    0.000  0.000 -0.000   -0.000  0.002 -0.001
 C         -0.000 -0.025  0.055    0.001  0.000 -0.000   -0.000 -0.002  0.003
 N         -0.000 -0.055  0.000   -0.002  0.000 -0.000    0.000  0.004 -0.002
 C         -0.000  0.001  0.000   -0.088 -0.000  0.000    0.000 -0.089  0.000
 H          0.000  0.316  0.466    0.012 -0.000 -0.000   -0.000 -0.023 -0.030
 H          0.000 -0.153  0.284    0.001  0.000 -0.000   -0.000  0.010 -0.022
 H          0.000 -0.363 -0.004    0.002  0.000 -0.000   -0.000  0.013 -0.003
 H         -0.000 -0.149 -0.287   -0.004  0.000  0.000    0.000  0.001 -0.004
 H          0.000  0.327 -0.459   -0.001 -0.000  0.000    0.000 -0.010  0.016
 H          0.000 -0.007 -0.058    0.793 -0.000 -0.000   -0.000 -0.096 -0.134
 H         -0.017  0.025  0.020    0.128 -0.386  0.126   -0.383  0.575  0.058
 H          0.017  0.025  0.020    0.128  0.386 -0.126    0.383  0.575  0.058
 Cl         0.000  0.000  0.000    0.000  0.000  0.000   -0.000  0.000  0.000
 TransDip   0.000  0.050  0.003    0.106  0.000  0.000   -0.000  0.091  0.016

 Mode:                31                     32                     33
 Frequency:      1491.07                1519.20                1625.49
 Force Cnst:      2.8818                 2.7098                 9.1267
 Red. Mass:       2.2000                 1.9927                 5.8626
 IR Active:          YES                    YES                    YES
 IR Intens:       40.285                  0.011                  2.902
 Raman Active:       YES                    YES                    YES
               X      Y      Z        X      Y      Z        X      Y      Z
 C          0.000  0.056 -0.105    0.000 -0.102 -0.072    0.000  0.195  0.099
 C         -0.000  0.004  0.147   -0.000  0.102 -0.099    0.000 -0.222  0.083
 C         -0.000 -0.101 -0.000    0.000  0.004  0.098    0.000  0.404  0.002
 C         -0.000  0.004 -0.147   -0.000 -0.103 -0.098   -0.000 -0.217 -0.087
 C          0.000  0.060  0.100    0.000  0.103 -0.074    0.000  0.191 -0.089
 N         -0.000 -0.151  0.001   -0.000  0.001  0.081   -0.000 -0.253 -0.005
 C         -0.000  0.013  0.000    0.000 -0.004  0.013   -0.000  0.011 -0.001
 H         -0.000  0.305  0.245    0.000  0.216  0.427   -0.000 -0.049 -0.270
 H         -0.000  0.252 -0.266    0.000 -0.172  0.420    0.000 -0.076 -0.235
 H         -0.000  0.565  0.006   -0.000 -0.015  0.119   -0.000 -0.551 -0.007
 H          0.000  0.250  0.284    0.000  0.157  0.420    0.000 -0.080  0.226
 H          0.000  0.297 -0.218   -0.000 -0.239  0.438    0.000 -0.043  0.251
 H          0.000  0.002 -0.088   -0.000 -0.014 -0.068    0.000  0.005 -0.067
 H         -0.000  0.004  0.041   -0.008  0.027 -0.056   -0.001  0.006  0.042
 H          0.000  0.004  0.041    0.008  0.027 -0.056    0.001  0.006  0.042
 Cl         0.000 -0.000  0.000   -0.000  0.000 -0.000    0.000 -0.000 -0.000
 TransDip   0.000  0.203  0.002   -0.000  0.001 -0.003    0.000  0.055  0.002

 Mode:                34                     35                     36
 Frequency:      1647.93                3153.84                3181.06
 Force Cnst:      7.9529                 5.9225                 6.4981
 Red. Mass:       4.9705                 1.0106                 1.0899
 IR Active:          YES                    YES                    YES
 IR Intens:       36.810                  3.405                  4.816
 Raman Active:       YES                    YES                    YES
               X      Y      Z        X      Y      Z        X      Y      Z
 C         -0.000  0.082  0.273   -0.000 -0.001  0.001   -0.000 -0.005  0.005
 C         -0.000  0.067 -0.268    0.000 -0.000 -0.000    0.000 -0.005 -0.004
 C          0.000 -0.005  0.141   -0.000 -0.000  0.000   -0.000 -0.000  0.019
 C         -0.000 -0.059 -0.273    0.000  0.000 -0.000    0.000  0.025 -0.010
 C         -0.000 -0.087  0.277   -0.000  0.001  0.001    0.000 -0.065 -0.046
 N          0.000 -0.001 -0.132   -0.000 -0.000  0.000    0.000 -0.000  0.000
 C         -0.000  0.001 -0.013    0.000  0.000  0.016    0.000  0.000 -0.000
 H          0.000 -0.317 -0.293    0.000  0.010 -0.005    0.000  0.069 -0.046
 H         -0.000 -0.227  0.241   -0.000  0.003  0.001   -0.000  0.062  0.034
 H          0.000  0.006  0.162    0.000  0.000 -0.004    0.000  0.002 -0.216
 H         -0.000  0.229  0.245   -0.000 -0.002  0.001   -0.000 -0.295  0.152
 H          0.000  0.336 -0.298    0.000 -0.017 -0.010   -0.000  0.749  0.513
 H          0.000  0.009  0.042   -0.000  0.572 -0.070   -0.000  0.008 -0.000
 H         -0.002 -0.010  0.047   -0.498 -0.285 -0.065   -0.009 -0.006  0.001
 H          0.002 -0.010  0.047    0.498 -0.285 -0.065    0.009 -0.006  0.001
 Cl         0.000  0.000  0.000   -0.000 -0.000  0.000   -0.000  0.000  0.000
 TransDip   0.000 -0.001  0.194    0.000 -0.013 -0.058   -0.000 -0.020  0.068

 Mode:                37                     38                     39
 Frequency:      3182.55                3190.65                3205.27
 Force Cnst:      6.5016                 6.5492                 6.6255
 Red. Mass:       1.0895                 1.0919                 1.0946
 IR Active:          YES                    YES                    YES
 IR Intens:        4.926                  1.169                  2.998
 Raman Active:       YES                    YES                    YES
               X      Y      Z        X      Y      Z        X      Y      Z
 C         -0.000 -0.063  0.043    0.000  0.029 -0.020   -0.000 -0.014  0.012
 C         -0.000  0.028  0.013   -0.000  0.013  0.012    0.000 -0.052 -0.030
 C          0.000 -0.000 -0.025    0.000  0.001 -0.070   -0.000  0.004  0.000
 C         -0.000 -0.008  0.005   -0.000 -0.016  0.012   -0.000 -0.053  0.029
 C          0.000 -0.003 -0.003    0.000 -0.024 -0.017    0.000 -0.012 -0.012
 N         -0.000 -0.000 -0.000   -0.000  0.000 -0.000    0.000  0.001  0.000
 C          0.000  0.000  0.001   -0.000 -0.000 -0.000    0.000  0.000  0.000
 H          0.000  0.730 -0.479   -0.000 -0.328  0.216    0.000  0.158 -0.107
 H          0.000 -0.324 -0.175    0.000 -0.175 -0.101   -0.000  0.593  0.327
 H         -0.000 -0.002  0.285   -0.000 -0.007  0.800    0.000 -0.005 -0.002
 H          0.000  0.093 -0.049    0.000  0.201 -0.110    0.000  0.603 -0.319
 H         -0.000  0.046  0.032   -0.000  0.266  0.183   -0.000  0.144  0.102
 H          0.000 -0.007 -0.002   -0.000  0.011  0.001   -0.000  0.000 -0.000
 H          0.002  0.002 -0.001   -0.007 -0.005  0.000   -0.000 -0.000  0.000
 H         -0.002  0.002 -0.001    0.007 -0.005  0.000    0.000 -0.000  0.000
 Cl         0.000 -0.000 -0.000    0.000  0.000  0.000   -0.000  0.000 -0.000
 TransDip   0.000 -0.021 -0.068   -0.000  0.003  0.035    0.000 -0.055 -0.002

 Mode:                40                     41                     42
 Frequency:      3210.45                3336.30                3337.19
 Force Cnst:      6.6759                 7.3633                 7.3673
 Red. Mass:       1.0993                 1.1228                 1.1228
 IR Active:          YES                    YES                    YES
 IR Intens:        8.154                  0.619                  2.360
 Raman Active:       YES                    YES                    YES
               X      Y      Z        X      Y      Z        X      Y      Z
 C          0.000  0.013 -0.011   -0.000 -0.000  0.000   -0.000  0.000 -0.000
 C         -0.000  0.048  0.025   -0.000  0.000  0.000   -0.000 -0.000 -0.000
 C         -0.000 -0.000  0.044    0.000  0.000  0.000    0.000 -0.000 -0.000
 C         -0.000 -0.048  0.024   -0.000  0.000 -0.000   -0.000 -0.000  0.000
 C          0.000 -0.012 -0.011   -0.000 -0.000 -0.000   -0.000  0.000  0.000
 N         -0.000  0.000 -0.000    0.000  0.001 -0.000    0.002 -0.000  0.000
 C         -0.000 -0.000 -0.000   -0.000 -0.102  0.001   -0.102  0.000 -0.000
 H         -0.000 -0.145  0.099    0.000  0.004 -0.000    0.001 -0.000  0.000
 H          0.000 -0.522 -0.285   -0.000 -0.000  0.000   -0.000  0.000 -0.000
 H          0.000  0.004 -0.474    0.000  0.000 -0.001    0.000 -0.000  0.000
 H          0.000  0.528 -0.276    0.000 -0.001  0.000    0.000  0.000 -0.000
 H         -0.000  0.134  0.096   -0.000  0.002 -0.000   -0.001 -0.000  0.000
 H         -0.000  0.004  0.000   -0.000  0.806 -0.106   -0.013 -0.000  0.000
 H         -0.004 -0.002  0.000    0.354  0.192  0.049    0.602  0.353  0.086
 H          0.004 -0.002  0.000   -0.354  0.192  0.049    0.602 -0.353 -0.086
 Cl        -0.000  0.000  0.000    0.000  0.000 -0.000    0.000 -0.000  0.000
 TransDip   0.000  0.001  0.091    0.000  0.022  0.012    0.049 -0.000 -0.000

 STANDARD THERMODYNAMIC QUANTITIES AT   298.15 K  AND     1.00 ATM

   This Molecule has  1 Imaginary Frequencies
   Zero point vibrational energy:       79.904 kcal/mol

   Atom    1 Element C  Has Mass   12.00000
   Atom    2 Element C  Has Mass   12.00000
   Atom    3 Element C  Has Mass   12.00000
   Atom    4 Element C  Has Mass   12.00000
   Atom    5 Element C  Has Mass   12.00000
   Atom    6 Element N  Has Mass   14.00307
   Atom    7 Element C  Has Mass   12.00000
   Atom    8 Element H  Has Mass    1.00783
   Atom    9 Element H  Has Mass    1.00783
   Atom   10 Element H  Has Mass    1.00783
   Atom   11 Element H  Has Mass    1.00783
   Atom   12 Element H  Has Mass    1.00783
   Atom   13 Element H  Has Mass    1.00783
   Atom   14 Element H  Has Mass    1.00783
   Atom   15 Element H  Has Mass    1.00783
   Atom   16 Element Cl Has Mass   34.96885
   Molecular Mass:   129.034560 amu
   Principal axes and moments of inertia in amu*Bohr^2:
                             1           2           3
    Eigenvalues --      315.03808  3201.96611  3504.69455
          X               0.00000     0.00000     1.00000
          Y              -0.00057     1.00000    -0.00000
          Z               1.00000     0.00057    -0.00000
   Rotational Symmetry Number is   1
   The Molecule is an Asymmetric Top
   Translational Enthalpy:        0.889 kcal/mol
   Rotational Enthalpy:           0.889 kcal/mol
   Vibrational Enthalpy:         83.315 kcal/mol
   gas constant (RT):             0.592 kcal/mol
   Translational Entropy:        40.478  cal/mol.K
   Rotational Entropy:           29.648  cal/mol.K
   Vibrational Entropy:          24.439  cal/mol.K

   Total Enthalpy:               85.685 kcal/mol
   Total Entropy:                94.565  cal/mol.K
Archival summary:
1\1\c193.oscer.ou.edu\FREQ\ProcedureUnspecified\6-311G**\l1168\yangjunj\MonSep2617:55:192022MonSep2617:55:192022\0\\#,FREQ,ProcedureUnspecified,6-311G**,\\0,1\Cl\C,1,2.46317\H,2,1.07586,1,82.1225\H,2,1.07592,1,82.5465,3,-119.914,0\H,2,1.07592,1,82.5465,3,119.914,0\N,2,1.84946,1,179.769,3,0,0\C,6,1.33611,2,120.647,1,-0,0\H,7,1.08416,6,116.33,2,-0,0\C,6,1.33744,2,119.057,1,180,0\H,9,1.08446,6,116.188,2,0,0\C,9,1.38756,6,121.569,2,180,0\H,11,1.08238,9,119.879,6,180,0\C,7,1.3887,6,121.556,2,-180,0\H,13,1.08239,7,119.852,6,-180,0\C,13,1.39199,7,118.716,6,0,0\H,15,1.08339,13,120.424,7,-180,0\\\@

 Total job time:  98.65s(wall), 1868.35s(cpu) 
 Mon Sep 26 17:55:19 2022

        *************************************************************
        *                                                           *
        *  Thank you very much for using Q-Chem.  Have a nice day.  *
        *                                                           *
        *************************************************************


 
User input: 2 of 2 
 
                  Welcome to Q-Chem
     A Quantum Leap Into The Future Of Chemistry


 Q-Chem 5.3 (devel), Q-Chem, Inc., Pleasanton, CA (2020)

 Yihan Shao,  Zhengting Gan,  E. Epifanovsky,  A. T. B. Gilbert,  M. Wormit,  
 J. Kussmann,  A. W. Lange,  A. Behn,  Jia Deng,  Xintian Feng,  D. Ghosh,  
 M. Goldey,  P. R. Horn,  L. D. Jacobson,  I. Kaliman,  T. Kus,  A. Landau,  
 Jie Liu,  E. I. Proynov,  R. M. Richard,  R. P. Steele,  E. J. Sundstrom,  
 H. L. Woodcock III,  P. M. Zimmerman,  D. Zuev,  B. Alam,  B. Albrecht,  
 E. Alguire,  S. A. Baeppler,  D. Barton,  Z. Benda,  Y. A. Bernard,  
 E. J. Berquist,  K. B. Bravaya,  H. Burton,  K. Carter-Fenk,  D. Casanova,  
 Chun-Min Chang,  Yunqing Chen,  A. Chien,  K. D. Closser,  M. P. Coons,  
 S. Coriani,  S. Dasgupta,  A. L. Dempwolff,  M. Diedenhofen,  Hainam Do,  
 R. G. Edgar,  Po-Tung Fang,  S. Faraji,  S. Fatehi,  Qingguo Feng,  
 J. Fosso-Tande,  J. Gayvert,  Qinghui Ge,  A. Ghysels,  G. Gidofalvi,  
 J. Gomes,  J. Gonthier,  A. Gunina,  D. Hait,  M. W. D. Hanson-Heine,  
 P. H. P. Harbach,  A. W. Hauser,  M. F. Herbst,  J. E. Herr,  
 E. G. Hohenstein,  Z. C. Holden,  Kerwin Hui,  B. C. Huynh,  T.-C. Jagau,  
 Hyunjun Ji,  B. Kaduk,  K. Khistyaev,  Jaehoon Kim,  P. Klunzinger,  K. Koh,  
 D. Kosenkov,  L. Koulias,  T. Kowalczyk,  C. M. Krauter,  A. Kunitsa,  
 Ka Un Lao,  A. Laurent,  K. V. Lawler,  Joonho Lee,  D. Lefrancois,  
 S. Lehtola,  D. S. Levine,  Yi-Pei Li,  You-Sheng Lin,  Fenglai Liu,  
 Kuan-Yu Liu,  E. Livshits,  M. Loipersberger,  A. Luenser,  P. Manohar,  
 E. Mansoor,  S. F. Manzer,  Shan-Ping Mao,  Yuezhi Mao,  N. Mardirossian,  
 A. V. Marenich,  T. Markovich,  L. A. Martinez-Martinez,  S. A. Maurer,  
 N. J. Mayhall,  S. C. McKenzie,  J.-M. Mewes,  P. Morgante,  A. F. Morrison,  
 J. W. Mullinax,  K. Nanda,  T. S. Nguyen-Beck,  R. Olivares-Amaya,  
 K. J. Oosterbaan,  J. A. Parkhill,  S. K. Paul,  F. Pavosevic,  Zheng Pei,  
 T. M. Perrine,  F. Plasser,  P. Pokhilko,  S. Prager,  A. Prociuk,  
 E. Ramos,  B. Rana,  D. R. Rehn,  F. Rob,  M. Scheurer,  M. Schneider,  
 N. Sergueev,  S. M. Sharada,  S. Sharma,  D. W. Small,  T. Stauch,  
 C. J. Stein,  T. Stein,  Yu-Chuan Su,  S. P. Veccham,  Zhen Tao,  
 A. J. W. Thom,  A. Tkatchenko,  T. Tsuchimochi,  N. M. Tubman,  L. Vogt,  
 M. L. Vidal,  O. Vydrov,  M. A. Watson,  J. Wenzel,  M. de Wergifosse,  
 T. A. Wesolowski,  A. White,  J. Witte,  A. Yamada,  Jun Yang,  K. Yao,  
 S. Yeganeh,  S. R. Yost,  Zhi-Qiang You,  A. Zech,  Igor Ying Zhang,  
 Xing Zhang,  Yan Zhao,  Ying Zhu,  B. R. Brooks,  G. K. L. Chan,  
 C. J. Cramer,  M. S. Gordon,  W. J. Hehre,  A. Klamt,  M. W. Schmidt,  
 C. D. Sherrill,  D. G. Truhlar,  A. Aspuru-Guzik,  R. Baer,  A. T. Bell,  
 N. A. Besley,  Jeng-Da Chai,  A. E. DePrince, III,  R. A. DiStasio Jr.,  
 A. Dreuw,  B. D. Dunietz,  T. R. Furlani,  Chao-Ping Hsu,  Yousung Jung,  
 Jing Kong,  D. S. Lambrecht,  WanZhen Liang,  C. Ochsenfeld,  
 V. A. Rassolov,  L. V. Slipchenko,  J. E. Subotnik,  T. Van Voorhis,  
 J. M. Herbert,  A. I. Krylov,  P. M. W. Gill,  M. Head-Gordon

 Contributors to earlier versions of Q-Chem not listed above: 
 R. D. Adamson,  B. Austin,  J. Baker,  G. J. O. Beran,  K. Brandhorst,  
 S. T. Brown,  E. F. C. Byrd,  A. K. Chakraborty,  C.-L. Cheng,  
 Siu Hung Chien,  D. M. Chipman,  D. L. Crittenden,  H. Dachsel,  
 R. J. Doerksen,  A. D. Dutoi,  L. Fusti-Molnar,  W. A. Goddard III,  
 A. Golubeva-Zadorozhnaya,  S. R. Gwaltney,  G. Hawkins,  A. Heyden,  
 S. Hirata,  G. Kedziora,  F. J. Keil,  C. Kelley,  Jihan Kim,  R. A. King,  
 R. Z. Khaliullin,  P. P. Korambath,  W. Kurlancheek,  A. M. Lee,  M. S. Lee,  
 S. V. Levchenko,  Ching Yeh Lin,  D. Liotard,  R. C. Lochan,  I. Lotan,  
 P. E. Maslen,  N. Nair,  D. P. O'Neill,  D. Neuhauser,  E. Neuscamman,  
[...]
    ---------          -----
     (2,0,0)        1.00000E-10
     (0,2,0)        2.00000E-11
     (0,0,2)       -3.00000E-11
 Nucleus-field energy     =    -0.0000000521 hartrees
 Requested basis set is 6-311G(d,p)
 There are 79 shells and 200 basis functions
 A cutoff of  1.0D-11 yielded   2440 shell pairs
 There are     16299 function pairs (     17608 Cartesian)
 Smallest overlap matrix eigenvalue = 5.19E-04
 Guess from superposition of atomic densities
 Warning:  Energy on first SCF cycle will be non-variational
 SAD guess density has 68.000000 electrons

 -----------------------------------------------------------------------
  General SCF calculation program by
  Eric Jon Sundstrom, Paul Horn, Yuezhi Mao, Dmitri Zuev, Alec White,
  David Stuck, Shaama M.S., Shane Yost, Joonho Lee, David Small,
  Daniel Levine, Susi Lehtola, Hugh Burton, Evgeny Epifanovsky,
  Bang C. Huynh
 -----------------------------------------------------------------------
 Exchange:     0.2000 Hartree-Fock + 0.0800 Slater + 0.7200 B88
 Correlation:  0.1900 VWN1RPA + 0.8100 LYP
 Using SG-3 standard quadrature grid
 using 20 threads for integral computing
 -------------------------------------------------------
 OpenMP Integral computing Module                
 Release: version 2.0, May 2017, Q-Chem Inc. Pleasanton 
 -------------------------------------------------------
 A restricted SCF calculation will be
 performed using DIIS
 SCF converges when DIIS error is below 1.0e-08
 ---------------------------------------
  Cycle       Energy         DIIS error
 ---------------------------------------
    1    -749.9212507727      4.65e-02  
    2    -748.3748145223      4.53e-03  
    3    -748.3635700902      4.88e-03  
    4    -748.4828093125      7.68e-04  
    5    -748.4848692788      3.47e-04  
    6    -748.4853140959      1.21e-04  
    7    -748.4853731545      4.99e-05  
    8    -748.4853863802      6.60e-06  
    9    -748.4853865608      2.54e-06  
   10    -748.4853865921      5.07e-07  
   11    -748.4853865932      1.22e-07  
   12    -748.4853865932      3.26e-08  
   13    -748.4853865930      1.00e-08  
   14    -748.4853865926      7.53e-09  Convergence criterion met
 ---------------------------------------
 SCF time:   CPU 160.45s  wall 8.00s 
 SCF   energy in the final basis set =     -748.4853865926
 Total energy in the final basis set =     -748.4853865926
 
 --------------------------------------------------------------
 
                    Orbital Energies (a.u.)
 --------------------------------------------------------------
 
 Alpha MOs
 -- Occupied --
******** -14.3224 -10.2221 -10.2220 -10.2082 -10.2078 -10.1981 -10.1980
 -9.4363  -7.2011  -7.1917  -7.1917  -0.9635  -0.8313  -0.8227  -0.7815
 -0.6641  -0.6498  -0.6456  -0.5479  -0.5010  -0.4878  -0.4496  -0.4344
 -0.4328  -0.4247  -0.4176  -0.3935  -0.3843  -0.3082  -0.2850  -0.2847
 -0.2836  -0.2732
 -- Virtual --
 -0.0461  -0.0337   0.0242   0.0438   0.0604   0.0633   0.0867   0.0899
  0.1149   0.1220   0.1226   0.1497   0.2069   0.2502   0.2643   0.2666
  0.2863   0.2979   0.2986   0.3040   0.3105   0.3199   0.3661   0.3678
  0.3716   0.3818   0.3979   0.4216   0.4241   0.4286   0.4443   0.4620
  0.5032   0.5290   0.5303   0.5372   0.5615   0.5808   0.5856   0.5890
  0.5971   0.6180   0.6339   0.6632   0.7153   0.7159   0.7320   0.7330
  0.7445   0.7732   0.8063   0.8314   0.8393   0.8446   0.8564   0.8985
  0.8987   0.9345   0.9480   0.9838   1.0133   1.0417   1.0625   1.0652
  1.0925   1.1231   1.1400   1.1525   1.1820   1.2310   1.2844   1.3297
  1.4230   1.4329   1.4427   1.4729   1.4870   1.4951   1.5249   1.5286
  1.5600   1.5701   1.5723   1.6242   1.6865   1.6872   1.7027   1.7169
  1.7428   1.7555   1.7619   1.7661   1.7987   1.8676   1.8804   1.9123
  1.9197   1.9567   2.0026   2.0378   2.0719   2.0971   2.1114   2.1306
  2.1530   2.1691   2.2381   2.2384   2.2437   2.2982   2.3469   2.3534
  2.3772   2.4018   2.4349   2.4383   2.4550   2.4986   2.5046   2.5345
  2.5524   2.5769   2.5779   2.5967   2.6080   2.6248   2.6492   2.6936
  2.7373   2.7464   2.7466   2.8322   2.9191   2.9353   2.9421   2.9525
  2.9771   3.1332   3.1490   3.2986   3.3800   3.4323   3.5570   3.6081
  3.7352   3.7361   3.7453   3.8397   3.9654   3.9987   4.0287   4.3699
  4.4264   5.2056   9.5676  23.6106  23.8654  23.8868  23.9882  24.0732
 24.1284  25.4753  25.4831  26.0283  35.6205 215.5447
 --------------------------------------------------------------
 
          Ground-State Mulliken Net Atomic Charges

     Atom                 Charge (a.u.)
  ----------------------------------------
      1 C                     0.092182
      2 C                    -0.189099
      3 C                     0.005986
      4 C                    -0.189479
      5 C                     0.093156
      6 N                    -0.329362
      7 C                    -0.323430
      8 H                     0.110584
      9 H                     0.106859
     10 H                     0.110269
     11 H                     0.106945
     12 H                     0.111870
     13 H                     0.154620
     14 H                     0.156348
     15 H                     0.156348
     16 Cl                   -0.173797
  ----------------------------------------
  Sum of atomic charges =     0.000000

 -----------------------------------------------------------------
                    Cartesian Multipole Moments
 -----------------------------------------------------------------
    Charge (ESU x 10^10)
                 0.0000
    Dipole Moment (Debye)
         X      -0.0000      Y       0.0009      Z       5.4429
       Tot       5.4429
    Quadrupole Moments (Debye-Ang)
        XX     -57.9879     XY       0.0000     YY     -49.5221
        XZ      -0.0000     YZ      -0.0646     ZZ     -63.4791
    Octopole Moments (Debye-Ang^2)
       XXX       0.0000    XXY      -0.6536    XYY       0.0000
       YYY       1.2784    XXZ      -1.3873    XYZ       0.0000
       YYZ      14.5410    XZZ       0.0000    YZZ       0.3972
       ZZZ     117.2892
    Hexadecapole Moments (Debye-Ang^3)
      XXXX     -71.2898   XXXY      -0.0000   XXYY     -68.4998
      XYYY      -0.0000   YYYY    -281.1121   XXXZ      -0.0000
      XXYZ       0.8755   XYYZ      -0.0000   YYYZ      -3.7934
      XXZZ    -470.0196   XYZZ       0.0000   YYZZ    -464.7707
      XZZZ      -0.0000   YZZZ      -2.6960   ZZZZ   -2703.7346
 -----------------------------------------------------------------
 Calculating analytic gradient of the SCF energy
 Gradient of SCF Energy
            1           2           3           4           5           6
    1  -0.0000000   0.0000000   0.0000000  -0.0000000  -0.0000000  -0.0000000
    2  -0.0030300   0.0005677   0.0000093  -0.0005160   0.0028970  -0.0000094
    3  -0.0001672  -0.0009926  -0.0011576  -0.0008597  -0.0003291   0.0003499
            7           8           9          10          11          12
    1  -0.0000000  -0.0000000  -0.0000000   0.0000000   0.0000000  -0.0000000
    2   0.0001412   0.0011530  -0.0000387   0.0000083   0.0000439  -0.0010333
    3   0.0015247  -0.0014771  -0.0006614  -0.0005982  -0.0006522  -0.0014180
           13          14          15          16
    1   0.0000000   0.0000266  -0.0000266   0.0000000
    2  -0.0002377  -0.0000326  -0.0000326   0.0001099
    3   0.0016248   0.0015621   0.0015621   0.0016895
 Max gradient component =       3.030E-03
 RMS gradient           =       9.364E-04
 Gradient time:  CPU 38.16 s  wall 1.91 s
rPathMan2.  file_steps = 952
 IRC --- Status = 3.  Assess initial corrector step
 IRC --- bisector search: b =  0.000000 E =     -748.485389 G.B =  -0.005046
 IRC --- bisector search: b =  0.010680 E =     -748.485387 G.B =   0.005400
 IRC --- performed gradient/energy interpolation
 IRC --- bisector search:  estimate b(min) =   5.154799635355325E-003
 ----------------------------------------------------------------
             Standard Nuclear Orientation (Angstroms)
    I     Atom           X                Y                Z
 ----------------------------------------------------------------
    1      C       0.0000000114     1.1529005703     1.1884864757
    2      C       0.0000000005     1.1925596571     2.5788563770
    3      C      -0.0000000097    -0.0140795112     3.2732498250
    4      C      -0.0000000093    -1.2058532280     2.5536700767
    5      C       0.0000000020    -1.1369480095     1.1643995282
    6      N       0.0000000126     0.0153187779     0.4923143541
    7      C      -0.0000000025     0.0050996407    -2.2727838792
    8      H       0.0000000196     2.0699158798     0.6046309688
    9      H       0.0000000000     2.1441351580     3.0958604810
   10      H      -0.0000000177    -0.0253689334     4.3562532333
   11      H      -0.0000000174    -2.1680235144     3.0506831604
   12      H       0.0000000024    -2.0411051460     0.5606895631
   13      H      -0.0000000266     1.0373734182    -1.9411760113
   14      H      -0.8912681691    -0.5016787057    -1.9204737621
   15      H       0.8912681916    -0.5016786619    -1.9204737702
   16      Cl     -0.0000000111    -0.0143047921    -4.0904411052
 ----------------------------------------------------------------
 Nuclear Repulsion Energy =         371.49403797 hartrees
 There are       34 alpha and       34 beta electrons
 Applying Cartesian multipole field
    Component          Value
    ---------          -----
     (2,0,0)        1.00000E-10
     (0,2,0)        2.00000E-11
     (0,0,2)       -3.00000E-11
 Nucleus-field energy     =    -0.0000000521 hartrees
 Requested basis set is 6-311G(d,p)
 There are 79 shells and 200 basis functions
 A cutoff of  1.0D-11 yielded   2440 shell pairs
 There are     16299 function pairs (     17608 Cartesian)
 Smallest overlap matrix eigenvalue = 5.19E-04
 Guess from superposition of atomic densities
 Warning:  Energy on first SCF cycle will be non-variational
 SAD guess density has 68.000000 electrons

 -----------------------------------------------------------------------
  General SCF calculation program by
  Eric Jon Sundstrom, Paul Horn, Yuezhi Mao, Dmitri Zuev, Alec White,
  David Stuck, Shaama M.S., Shane Yost, Joonho Lee, David Small,
  Daniel Levine, Susi Lehtola, Hugh Burton, Evgeny Epifanovsky,
  Bang C. Huynh
 -----------------------------------------------------------------------
 Exchange:     0.2000 Hartree-Fock + 0.0800 Slater + 0.7200 B88
 Correlation:  0.1900 VWN1RPA + 0.8100 LYP
 Using SG-3 standard quadrature grid
 using 20 threads for integral computing
 -------------------------------------------------------
 OpenMP Integral computing Module                
 Release: version 2.0, May 2017, Q-Chem Inc. Pleasanton 
 -------------------------------------------------------
 A restricted SCF calculation will be
 performed using DIIS
 SCF converges when DIIS error is below 1.0e-08
 ---------------------------------------
  Cycle       Energy         DIIS error
 ---------------------------------------
    1    -749.9173452521      4.65e-02  
    2    -748.3750686411      4.52e-03  
    3    -748.3641164325      4.86e-03  
    4    -748.4828196571      7.68e-04  
    5    -748.4848895937      3.46e-04  
    6    -748.4853294791      1.20e-04  
    7    -748.4853879540      5.01e-05  
    8    -748.4854013041      6.66e-06  
    9    -748.4854014885      2.56e-06  
   10    -748.4854015204      5.05e-07  
   11    -748.4854015214      1.22e-07  
   12    -748.4854015214      3.21e-08  
   13    -748.4854015212      7.09e-09  Convergence criterion met
 ---------------------------------------
 SCF time:   CPU 149.61s  wall 7.00s 
 SCF   energy in the final basis set =     -748.4854015212
 Total energy in the final basis set =     -748.4854015212
 
 --------------------------------------------------------------
 
                    Orbital Energies (a.u.)
 --------------------------------------------------------------
 
 Alpha MOs
 -- Occupied --
******** -14.3225 -10.2220 -10.2220 -10.2081 -10.2078 -10.1981 -10.1981
 -9.4363  -7.2011  -7.1917  -7.1917  -0.9626  -0.8313  -0.8225  -0.7815
 -0.6640  -0.6496  -0.6458  -0.5480  -0.5008  -0.4880  -0.4498  -0.4343
 -0.4327  -0.4248  -0.4172  -0.3934  -0.3845  -0.3080  -0.2850  -0.2847
 -0.2836  -0.2732
 -- Virtual --
 -0.0463  -0.0337   0.0243   0.0438   0.0605   0.0634   0.0867   0.0899
  0.1149   0.1218   0.1227   0.1498   0.2066   0.2499   0.2641   0.2665
  0.2864   0.2981   0.2986   0.3041   0.3105   0.3199   0.3661   0.3678
  0.3717   0.3817   0.3980   0.4217   0.4242   0.4287   0.4444   0.4617
  0.5032   0.5290   0.5305   0.5373   0.5611   0.5807   0.5855   0.5890
  0.5972   0.6177   0.6339   0.6632   0.7152   0.7159   0.7319   0.7331
  0.7446   0.7728   0.8062   0.8309   0.8393   0.8447   0.8564   0.8985
  0.8988   0.9348   0.9477   0.9837   1.0132   1.0420   1.0624   1.0653
  1.0922   1.1232   1.1400   1.1525   1.1816   1.2315   1.2848   1.3308
  1.4228   1.4324   1.4427   1.4730   1.4870   1.4951   1.5248   1.5280
  1.5598   1.5700   1.5721   1.6242   1.6870   1.6871   1.7027   1.7169
  1.7428   1.7561   1.7616   1.7666   1.7988   1.8682   1.8803   1.9127
  1.9192   1.9563   2.0027   2.0376   2.0728   2.0971   2.1114   2.1306
  2.1536   2.1687   2.2381   2.2385   2.2436   2.2983   2.3466   2.3526
  2.3769   2.4019   2.4349   2.4383   2.4552   2.4987   2.5045   2.5333
  2.5525   2.5765   2.5781   2.5973   2.6079   2.6243   2.6493   2.6948
  2.7373   2.7456   2.7459   2.8320   2.9190   2.9342   2.9404   2.9523
  2.9769   3.1334   3.1490   3.2988   3.3801   3.4327   3.5560   3.6092
  3.7354   3.7361   3.7457   3.8387   3.9654   3.9992   4.0300   4.3698
  4.4251   5.2047   9.5676  23.6097  23.8654  23.8865  23.9880  24.0726
 24.1285  25.4753  25.4831  26.0283  35.6173 215.5447
 --------------------------------------------------------------
 
          Ground-State Mulliken Net Atomic Charges

     Atom                 Charge (a.u.)
  ----------------------------------------
      1 C                     0.092643
      2 C                    -0.189703
      3 C                     0.006579
      4 C                    -0.190018
      5 C                     0.093575
      6 N                    -0.330506
      7 C                    -0.323315
      8 H                     0.111059
      9 H                     0.106799
     10 H                     0.110364
     11 H                     0.106888
     12 H                     0.112325
     13 H                     0.154544
     14 H                     0.156344
     15 H                     0.156344
     16 Cl                   -0.173922
  ----------------------------------------
  Sum of atomic charges =     0.000000

 -----------------------------------------------------------------
                    Cartesian Multipole Moments
 -----------------------------------------------------------------
    Charge (ESU x 10^10)
                 0.0000
    Dipole Moment (Debye)
         X      -0.0000      Y       0.0011      Z       5.4451
       Tot       5.4451
    Quadrupole Moments (Debye-Ang)
        XX     -57.9915     XY       0.0000     YY     -49.5000
        XZ      -0.0000     YZ      -0.0647     ZZ     -63.4931
    Octopole Moments (Debye-Ang^2)
       XXX       0.0000    XXY      -0.6532    XYY       0.0000
       YYY       1.2836    XXZ      -1.3844    XYZ       0.0000
       YYZ      14.5375    XZZ       0.0000    YZZ       0.3958
       ZZZ     117.3702
    Hexadecapole Moments (Debye-Ang^3)
      XXXX     -71.2989   XXXY      -0.0000   XXYY     -68.5139
      XYYY      -0.0000   YYYY    -281.1303   XXXZ      -0.0000
      XXYZ       0.8739   XYYZ      -0.0000   YYYZ      -3.7937
      XXZZ    -470.0726   XYZZ      -0.0000   YYZZ    -464.9304
      XZZZ      -0.0000   YZZZ      -2.7232   ZZZZ   -2704.1821
 -----------------------------------------------------------------
 Calculating analytic gradient of the SCF energy
 Gradient of SCF Energy
            1           2           3           4           5           6
    1  -0.0000000  -0.0000000   0.0000000   0.0000000  -0.0000000  -0.0000000
    2   0.0004237   0.0000173   0.0000074  -0.0000145  -0.0004173   0.0000140
    3  -0.0007213  -0.0007057  -0.0006739  -0.0007135  -0.0006887  -0.0007655
            7           8           9          10          11          12
    1   0.0000000  -0.0000000  -0.0000000   0.0000000   0.0000000  -0.0000000
    2  -0.0000604  -0.0001712   0.0000191   0.0000127   0.0000024   0.0001602
    3   0.0015322  -0.0007093  -0.0007564  -0.0007975  -0.0007435  -0.0007074
           13          14          15          16
    1  -0.0000000   0.0000530  -0.0000530  -0.0000000
    2  -0.0000874  -0.0000120  -0.0000120   0.0001180
    3   0.0016682   0.0015518   0.0015518   0.0016788
 Max gradient component =       1.679E-03
 RMS gradient           =       6.294E-04
 Gradient time:  CPU 38.06 s  wall 1.91 s
rPathMan2.  file_steps = 952
 IRC --- Status = 4.  Checking bisector search.
 IRC --- Bisector search finished successfully.
 ------------------------------------------------------------------------
 Reaction path following.  The coordinates are cartesian              
 Step  26 E=    -748.485402 |G|=  0.004360 S_lin= 2.0310 S_tot= 2.4295
 ------------------------------------------------------------------------
  IRC -- convergence criterion reached.
 ----------------------------------------------------------------
             Standard Nuclear Orientation (Angstroms)
    I     Atom           X                Y                Z
 ----------------------------------------------------------------
    1      C       0.0000000000     1.1660982027     1.0273552653
    2      C       0.0000000000     1.1946334528     2.4157604328
    3      C       0.0000000180    -0.0121639542     3.1095089387
    4      C       0.0000000000    -1.2069297484     2.3932025625
    5      C      -0.0000000116    -1.1526098051     1.0067050564
    6      N       0.0000000000     0.0134384443     0.3516673433
    7      C       0.0000000201     0.0047870381    -1.4977735385
    8      H       0.0000000272     2.0723357584     0.4322646461
    9      H      -0.0000000085     2.1442784132     2.9351282546
   10      H      -0.0000000204    -0.0221952055     4.1928532082
   11      H      -0.0000000275    -2.1658350290     2.8952524958
   12      H       0.0000000072    -2.0464911312     0.3926780136
   13      H      -0.0000000545     1.0703998494    -1.6459204808
   14      H      -0.9246984434    -0.5273334701    -1.6369976837
   15      H       0.9246984837    -0.5273334658    -1.6369976934
   16      Cl     -0.0000000136     0.0031832501    -3.9609413212
 ----------------------------------------------------------------
 Nuclear Repulsion Energy =         378.80430196 hartrees
 There are       34 alpha and       34 beta electrons
 Here is where we should summarize the reaction path
Archival summary:
1\1\c193.oscer.ou.edu\JobtypUnspecified\ProcedureUnspecified\6-311G**\l1168\yangjunj\MonSep2618:17:002022MonSep2618:17:002022\0\\#,JobtypUnspecified,ProcedureUnspecified,6-311G**,\\0,1\Cl\C,1,2.46317\H,2,1.07586,1,82.1225\H,2,1.07592,1,82.5465,3,-119.914,0\H,2,1.07592,1,82.5465,3,119.914,0\N,2,1.84946,1,179.769,3,0,0\C,6,1.33611,2,120.647,1,-0,0\H,7,1.08416,6,116.33,2,-0,0\C,6,1.33744,2,119.057,1,180,0\H,9,1.08446,6,116.188,2,0,0\C,9,1.38756,6,121.569,2,180,0\H,11,1.08238,9,119.879,6,180,0\C,7,1.3887,6,121.556,2,-180,0\H,13,1.08239,7,119.852,6,-180,0\C,13,1.39199,7,118.716,6,0,0\H,15,1.08339,13,120.424,7,-180,0\\\@

 Total job time:  1300.08s(wall), 25518.07s(cpu) 
 Mon Sep 26 18:17:00 2022

        *************************************************************
        *                                                           *
        *  Thank you very much for using Q-Chem.  Have a nice day.  *
        *                                                           *
        *************************************************************


