                  Welcome to Q-Chem
     A Quantum Leap Into The Future Of Chemistry


 Q-Chem 5.3 (devel), Q-Chem, Inc., Pleasanton, CA (2020)

 Yihan Shao,  Zhengting Gan,  E. Epifanovsky,  A. T. B. Gilbert,  M. Wormit,  
 J. Kussmann,  A. W. Lange,  A. Behn,  Jia Deng,  Xintian Feng,  D. Ghosh,  
 M. Goldey,  P. R. Horn,  L. D. Jacobson,  I. Kaliman,  T. Kus,  A. Landau,  
 Jie Liu,  E. I. Proynov,  R. M. Richard,  R. P. Steele,  E. J. Sundstrom,  
 H. L. Woodcock III,  P. M. Zimmerman,  D. Zuev,  B. Alam,  B. Albrecht,  
 E. Alguire,  S. A. Baeppler,  D. Barton,  Z. Benda,  Y. A. Bernard,  
 E. J. Berquist,  K. B. Bravaya,  H. Burton,  K. Carter-Fenk,  D. Casanova,  
 Chun-Min Chang,  Yunqing Chen,  A. Chien,  K. D. Closser,  M. P. Coons,  
 S. Coriani,  S. Dasgupta,  A. L. Dempwolff,  M. Diedenhofen,  Hainam Do,  
 R. G. Edgar,  Po-Tung Fang,  S. Faraji,  S. Fatehi,  Qingguo Feng,  
 J. Fosso-Tande,  J. Gayvert,  Qinghui Ge,  A. Ghysels,  G. Gidofalvi,  
 J. Gomes,  J. Gonthier,  A. Gunina,  D. Hait,  M. W. D. Hanson-Heine,  
 P. H. P. Harbach,  A. W. Hauser,  M. F. Herbst,  J. E. Herr,  
 E. G. Hohenstein,  Z. C. Holden,  Kerwin Hui,  B. C. Huynh,  T.-C. Jagau,  
 Hyunjun Ji,  B. Kaduk,  K. Khistyaev,  Jaehoon Kim,  P. Klunzinger,  K. Koh,  
 D. Kosenkov,  L. Koulias,  T. Kowalczyk,  C. M. Krauter,  A. Kunitsa,  
 Ka Un Lao,  A. Laurent,  K. V. Lawler,  Joonho Lee,  D. Lefrancois,  
 S. Lehtola,  D. S. Levine,  Yi-Pei Li,  You-Sheng Lin,  Fenglai Liu,  
 Kuan-Yu Liu,  E. Livshits,  M. Loipersberger,  A. Luenser,  P. Manohar,  
 E. Mansoor,  S. F. Manzer,  Shan-Ping Mao,  Yuezhi Mao,  N. Mardirossian,  
 A. V. Marenich,  T. Markovich,  L. A. Martinez-Martinez,  S. A. Maurer,  
 N. J. Mayhall,  S. C. McKenzie,  J.-M. Mewes,  P. Morgante,  A. F. Morrison,  
 J. W. Mullinax,  K. Nanda,  T. S. Nguyen-Beck,  R. Olivares-Amaya,  
 K. J. Oosterbaan,  J. A. Parkhill,  S. K. Paul,  F. Pavosevic,  Zheng Pei,  
 T. M. Perrine,  F. Plasser,  P. Pokhilko,  S. Prager,  A. Prociuk,  
 E. Ramos,  B. Rana,  D. R. Rehn,  F. Rob,  M. Scheurer,  M. Schneider,  
 N. Sergueev,  S. M. Sharada,  S. Sharma,  D. W. Small,  T. Stauch,  
 C. J. Stein,  T. Stein,  Yu-Chuan Su,  S. P. Veccham,  Zhen Tao,  
 A. J. W. Thom,  A. Tkatchenko,  T. Tsuchimochi,  N. M. Tubman,  L. Vogt,  
 M. L. Vidal,  O. Vydrov,  M. A. Watson,  J. Wenzel,  M. de Wergifosse,  
 T. A. Wesolowski,  A. White,  J. Witte,  A. Yamada,  Jun Yang,  K. Yao,  
 S. Yeganeh,  S. R. Yost,  Zhi-Qiang You,  A. Zech,  Igor Ying Zhang,  
 Xing Zhang,  Yan Zhao,  Ying Zhu,  B. R. Brooks,  G. K. L. Chan,  
 C. J. Cramer,  M. S. Gordon,  W. J. Hehre,  A. Klamt,  M. W. Schmidt,  
 C. D. Sherrill,  D. G. Truhlar,  A. Aspuru-Guzik,  R. Baer,  A. T. Bell,  
 N. A. Besley,  Jeng-Da Chai,  A. E. DePrince, III,  R. A. DiStasio Jr.,  
 A. Dreuw,  B. D. Dunietz,  T. R. Furlani,  Chao-Ping Hsu,  Yousung Jung,  
 Jing Kong,  D. S. Lambrecht,  WanZhen Liang,  C. Ochsenfeld,  
 V. A. Rassolov,  L. V. Slipchenko,  J. E. Subotnik,  T. Van Voorhis,  
 J. M. Herbert,  A. I. Krylov,  P. M. W. Gill,  M. Head-Gordon

 Contributors to earlier versions of Q-Chem not listed above: 
 R. D. Adamson,  B. Austin,  J. Baker,  G. J. O. Beran,  K. Brandhorst,  
 S. T. Brown,  E. F. C. Byrd,  A. K. Chakraborty,  C.-L. Cheng,  
 Siu Hung Chien,  D. M. Chipman,  D. L. Crittenden,  H. Dachsel,  
 R. J. Doerksen,  A. D. Dutoi,  L. Fusti-Molnar,  W. A. Goddard III,  
 A. Golubeva-Zadorozhnaya,  S. R. Gwaltney,  G. Hawkins,  A. Heyden,  
 S. Hirata,  G. Kedziora,  F. J. Keil,  C. Kelley,  Jihan Kim,  R. A. King,  
 R. Z. Khaliullin,  P. P. Korambath,  W. Kurlancheek,  A. M. Lee,  M. S. Lee,  
 S. V. Levchenko,  Ching Yeh Lin,  D. Liotard,  R. C. Lochan,  I. Lotan,  
 P. E. Maslen,  N. Nair,  D. P. O'Neill,  D. Neuhauser,  E. Neuscamman,  
 C. M. Oana,  R. Olson,  B. Peters,  R. Peverati,  P. A. Pieniazek,  
 Y. M. Rhee,  J. Ritchie,  M. A. Rohrdanz,  E. Rosta,  N. J. Russ,  
 H. F. Schaefer III,  N. E. Schultz,  N. Shenvi,  A. C. Simmonett,  A. Sodt,  
 D. Stuck,  K. S. Thanthiriwatte,  V. Vanovschi,  Tao Wang,  A. Warshel,  
 C. F. Williams,  Q. Wu,  X. Xu,  W. Zhang

 Please cite Q-Chem as follows:
 Y. Shao et al., Mol. Phys. 113, 184-215 (2015)
 DOI: 10.1080/00268976.2014.952696

 Q-Chem 5.3.0 for Intel X86 EM64T Linux

 Parts of Q-Chem use Armadillo 9.800.1 (Horizon Scraper).
 http://arma.sourceforge.net/

 Q-Chem begins on Thu Sep 29 20:15:39 2022  

Host: c193.oscer.ou.edu
0

     Scratch files written to /scratch/yangjunjie/qchem9497//
Processing $rem in /home/zhengpei/q-chem/new-trunk/config/preferences:
Processing $rem in /home/yangjunjie/.qchemrc:

Checking the input file for inconsistencies... 	...done.

--------------------------------------------------------------
User input:
--------------------------------------------------------------
$molecule
0 1
   C       0.0000000000     1.1660982027     1.0273552653
   C       0.0000000000     1.1946334528     2.4157604328
   C       0.0000000180    -0.0121639542     3.1095089387
   C       0.0000000000    -1.2069297484     2.3932025625
   C      -0.0000000116    -1.1526098051     1.0067050564
   N       0.0000000000     0.0134384443     0.3516673433
   C       0.0000000201     0.0047870381    -1.4977735385
   H       0.0000000272     2.0723357584     0.4322646461
   H      -0.0000000085     2.1442784132     2.9351282546
   H      -0.0000000204    -0.0221952055     4.1928532082
   H      -0.0000000275    -2.1658350290     2.8952524958
   H       0.0000000072    -2.0464911312     0.3926780136
   H      -0.0000000545     1.0703998494    -1.6459204808
   H      -0.9246984434    -0.5273334701    -1.6369976837
   H       0.9246984837    -0.5273334658    -1.6369976934
   Cl     -0.0000000136     0.0031832501    -3.9609413212
$end

$rem
   BASIS  =  6-311g**
   METHOD  =  HF
   JOB_TYPE  =  pes_scan

   SCF_CONVERGENCE  =  8
   GUI  =  2

   SYMMETRY_IGNORE  =  1
   SYMMETRY_INTEGRAL  =  0
$end

$scan
   r12mr34 16 7 7 6 -2.0 2.0 0.1 1000.0
$end
--------------------------------------------------------------
 ----------------------------------------------------------------
             Standard Nuclear Orientation (Angstroms)
    I     Atom           X                Y                Z
 ----------------------------------------------------------------
    1      C       0.0000000000     1.1660982027     1.0273552653
    2      C       0.0000000000     1.1946334528     2.4157604328
    3      C       0.0000000180    -0.0121639542     3.1095089387
    4      C       0.0000000000    -1.2069297484     2.3932025625
    5      C      -0.0000000116    -1.1526098051     1.0067050564
    6      N       0.0000000000     0.0134384443     0.3516673433
    7      C       0.0000000201     0.0047870381    -1.4977735385
    8      H       0.0000000272     2.0723357584     0.4322646461
    9      H      -0.0000000085     2.1442784132     2.9351282546
   10      H      -0.0000000204    -0.0221952055     4.1928532082
   11      H      -0.0000000275    -2.1658350290     2.8952524958
   12      H       0.0000000072    -2.0464911312     0.3926780136
   13      H      -0.0000000545     1.0703998494    -1.6459204808
   14      H      -0.9246984434    -0.5273334701    -1.6369976837
   15      H       0.9246984837    -0.5273334658    -1.6369976934
   16      Cl     -0.0000000136     0.0031832501    -3.9609413212
 ----------------------------------------------------------------
 Nuclear Repulsion Energy =         378.80430196 hartrees
 There are       34 alpha and       34 beta electrons
 Requested basis set is 6-311G(d,p)
 There are 79 shells and 200 basis functions

 Total QAlloc Memory Limit   2000 MB
 Mega-Array Size       188 MB
 MEM_STATIC part       192 MB
A total of 1 constraints
  
            1
    1   3.0100000
    2  16.0100000
    3   7.0100000
    4   7.0100000
    5   6.0100000
    6  -2.0000000
    7   2.0000000
    8   0.1000000
    91000.0000000
   10   0.0000000
 A cutoff of  1.0D-11 yielded   2533 shell pairs
 There are     16920 function pairs (     18300 Cartesian)
 Smallest overlap matrix eigenvalue = 4.83E-04

 Scale SEOQF with 1.000000e+00/1.000000e-01/1.000000e-01

 Standard Electronic Orientation quadrupole field applied
 Nucleus-field energy     =    -0.0000000453 hartrees
 Guess from superposition of atomic densities
 Warning:  Energy on first SCF cycle will be non-variational
 SAD guess density has 68.000000 electrons

 -----------------------------------------------------------------------
  General SCF calculation program by
  Eric Jon Sundstrom, Paul Horn, Yuezhi Mao, Dmitri Zuev, Alec White,
  David Stuck, Shaama M.S., Shane Yost, Joonho Lee, David Small,
  Daniel Levine, Susi Lehtola, Hugh Burton, Evgeny Epifanovsky,
  Bang C. Huynh
 -----------------------------------------------------------------------
 Hartree-Fock
 using 20 threads for integral computing
 -------------------------------------------------------
 OpenMP Integral computing Module                
 Release: version 2.0, May 2017, Q-Chem Inc. Pleasanton 
 -------------------------------------------------------
 A restricted SCF calculation will be
 performed using DIIS
 SCF converges when DIIS error is below 1.0e-08
 ---------------------------------------
  Cycle       Energy         DIIS error
 ---------------------------------------
    1    -748.3781168012      4.88e-02  
    2    -745.6782491279      4.39e-03  
    3    -745.7939708296      2.42e-03  
    4    -745.8210819322      7.70e-04  
    5    -745.8248331859      2.77e-04  
    6    -745.8252608119      5.58e-05  
    7    -745.8253088643      1.76e-05  
    8    -745.8253141362      4.30e-06  
    9    -745.8253144411      1.66e-06  
   10    -745.8253144883      7.58e-07  
   11    -745.8253145031      3.32e-07  
   12    -745.8253145055      1.28e-07  
   13    -745.8253145057      4.80e-08  
   14    -745.8253145059      1.77e-08  
   15    -745.8253145057      4.86e-09  Convergence criterion met
 ---------------------------------------
 SCF time:   CPU 57.41s  wall 3.00s 
 SCF   energy in the final basis set =     -745.8253145057
 Total energy in the final basis set =     -745.8253145057
 
 --------------------------------------------------------------
 
                    Orbital Energies (a.u.)
 --------------------------------------------------------------
 
 Alpha MOs
 -- Occupied --
******** -15.6718 -11.3519 -11.3513 -11.3260 -11.3252 -11.3061 -11.3060
-10.3900  -7.8572  -7.8565  -7.8565  -1.3531  -1.1613  -1.1099  -0.9956
 -0.9353  -0.9242  -0.8928  -0.7869  -0.7385  -0.7175  -0.6733  -0.6545
 -0.6484  -0.6254  -0.6027  -0.5903  -0.5368  -0.4553  -0.4147  -0.3138
 -0.3138  -0.3135
 -- Virtual --
  0.0369   0.0620   0.1052   0.1364   0.1373   0.1706   0.1744   0.1966
  0.2162   0.2224   0.2596   0.2722   0.3418   0.3603   0.3758   0.3902
  0.4086   0.4165   0.4249   0.4712   0.4985   0.5087   0.5089   0.5266
  0.5416   0.5468   0.5531   0.5617   0.5791   0.6027   0.6068   0.6606
  0.6672   0.6788   0.6927   0.7135   0.7385   0.7563   0.7577   0.7816
  0.7826   0.7890   0.8069   0.8629   0.8730   0.8899   0.9014   0.9407
  0.9452   0.9779   1.0045   1.0507   1.0947   1.1148   1.1158   1.1526
  1.1898   1.1983   1.2538   1.2785   1.2980   1.3025   1.3076   1.3115
  1.3187   1.3282   1.3744   1.4404   1.4654   1.5171   1.5440   1.5729
  1.6400   1.6443   1.6569   1.6755   1.6844   1.6994   1.7318   1.7459
  1.7656   1.7970   1.8357   1.8937   1.9030   1.9117   1.9351   1.9830
  1.9855   1.9947   2.0533   2.0699   2.0870   2.1221   2.1426   2.1616
  2.1682   2.2139   2.2558   2.2935   2.2947   2.3288   2.3304   2.4098
  2.4323   2.4814   2.5445   2.6105   2.6292   2.6343   2.6394   2.6615
  2.6992   2.7082   2.7351   2.7471   2.8166   2.8255   2.8433   2.8506
  2.8603   2.8765   2.8852   2.9178   2.9194   2.9290   2.9413   2.9813
  3.0447   3.0779   3.0832   3.1856   3.2265   3.2339   3.2564   3.3058
  3.3352   3.4681   3.5458   3.6901   3.7729   3.8104   3.9523   3.9749
  4.0788   4.1346   4.1637   4.2751   4.3277   4.3683   4.4176   4.7654
  4.9009   5.6377  10.3192  24.7061  24.9877  24.9955  25.0906  25.1860
 25.2436  26.4257  26.4328  26.7496  36.9574 219.1389
 --------------------------------------------------------------
 
          Ground-State Mulliken Net Atomic Charges

     Atom                 Charge (a.u.)
  ----------------------------------------
      1 C                     0.258032
      2 C                    -0.248515
      3 C                     0.068722
      4 C                    -0.247284
      5 C                     0.254151
      6 N                    -0.573803
      7 C                    -0.033620
      8 H                     0.155605
      9 H                     0.137916
     10 H                     0.141409
     11 H                     0.137922
     12 H                     0.156700
     13 H                     0.175200
     14 H                     0.194406
     15 H                     0.194406
     16 Cl                   -0.771247
  ----------------------------------------
  Sum of atomic charges =     0.000000

 -----------------------------------------------------------------
                    Cartesian Multipole Moments
 -----------------------------------------------------------------
    Charge (ESU x 10^10)
                 0.0000
    Dipole Moment (Debye)
         X       0.0000      Y      -0.0317      Z      16.0753
       Tot      16.0753
    Quadrupole Moments (Debye-Ang)
        XX     -59.1210     XY      -0.0000     YY     -46.8709
        XZ      -0.0000     YZ       0.0559     ZZ     -98.9191
    Octopole Moments (Debye-Ang^2)
       XXX       0.0000    XXY      -1.2602    XYY      -0.0000
       YYY       0.9449    XXZ       4.8339    XYZ       0.0000
       YYZ      24.4324    XZZ       0.0000    YZZ      -0.2610
       ZZZ     322.3638
    Hexadecapole Moments (Debye-Ang^3)
      XXXX     -73.9544   XXXY      -0.0000   XXYY     -68.5935
      XYYY      -0.0000   YYYY    -259.8672   XXXZ      -0.0000
      XXYZ       2.3072   XYYZ      -0.0000   YYYZ      -1.2336
      XXZZ    -446.6814   XYZZ      -0.0000   YYZZ    -433.2099
      XZZZ      -0.0000   YZZZ       0.8699   ZZZZ   -3206.1156
 -----------------------------------------------------------------
 Calculating analytic gradient of the SCF energy
 Array in AddRestraintEnergy
            1
    1   2.0010000
    2  -2.0000000
    31000.0000000
    4  16.0100000
    5   7.0100000
    6   7.0100000
    7   6.0100000
 Gradient of SCF Energy
            1           2           3           4           5           6
    1  -0.0000000  -0.0000000   0.0000000   0.0000000  -0.0000000   0.0000000
    2   0.0111193  -0.0003370  -0.0003130   0.0005822  -0.0109478  -0.0208585
    3   0.0006274   0.0015304   0.0049277   0.0019944  -0.0002116  -4.4116071
            7           8           9          10          11          12
    1   0.0000000   0.0000000  -0.0000000  -0.0000000  -0.0000000   0.0000000
    2   0.0239253   0.0059722   0.0060597  -0.0000582  -0.0061046  -0.0058018
    3   8.8025268  -0.0047861   0.0033335   0.0066052   0.0032247  -0.0046520
           13          14          15          16
    1  -0.0000000  -0.0065805   0.0065805  -0.0000001
    2   0.0078388  -0.0041379  -0.0041379  -0.0028006
    3  -0.0014571  -0.0014244  -0.0014244  -4.3992074
 Max gradient component =       8.803E+00
 RMS gradient           =       1.557E+00
 Gradient time:  CPU 22.27 s  wall 1.83 s
 Geometry Optimization Parameters
   NAtoms,    NIC,     NZ,  NCons,   NDum,   NFix, NCnnct, MaxDiis
       16     144       0       0       0       0       0       0


** GEOMETRY OPTIMIZATION IN DELOCALIZED INTERNAL COORDINATES **
   Searching for a Minimum

   Optimization Cycle:   1

                       Coordinates (Angstroms)
     ATOM                X               Y               Z
      1  C         0.0000000000    1.1660982027    1.0273552653
      2  C         0.0000000000    1.1946334528    2.4157604328
      3  C         0.0000000180   -0.0121639542    3.1095089387
      4  C         0.0000000000   -1.2069297484    2.3932025625
      5  C        -0.0000000116   -1.1526098051    1.0067050564
      6  N         0.0000000000    0.0134384443    0.3516673433
      7  C         0.0000000201    0.0047870381   -1.4977735385
      8  H         0.0000000272    2.0723357584    0.4322646461
      9  H        -0.0000000085    2.1442784132    2.9351282546
     10  H        -0.0000000204   -0.0221952055    4.1928532082
     11  H        -0.0000000275   -2.1658350290    2.8952524958
     12  H         0.0000000072   -2.0464911312    0.3926780136
     13  H        -0.0000000545    1.0703998494   -1.6459204808
     14  H        -0.9246984434   -0.5273334701   -1.6369976837
     15  H         0.9246984837   -0.5273334658   -1.6369976934
     16  Cl       -0.0000000136    0.0031832501   -3.9609413212
   Point Group: c1    Number of degrees of freedom:    42


   Energy is   -745.825314506


 Attempting to generate delocalized internal coordinates
 Initial Hessian constructed with Jon Baker's OPTIMIZE code

 ** Taking Steepest Descent Step **
 Calculated Step too Large.  Step scaled by  0.058613
 Step Taken.  Stepsize is  0.300000

                             Maximum     Tolerance    Cnvgd?
         Gradient           2.739525      0.000300      NO
         Displacement       0.160573      0.001200      NO
         Energy change     *********      0.000001      NO


 New Cartesian Coordinates Obtained by Inverse Iteration

 Displacement from previous Coordinates is:  0.421035
 Array in AddRestraintEnergy
            1
    1   2.0010000
    2  -2.0000000
    31000.0000000
    4  16.0100000
    5   7.0100000
    6   7.0100000
    7   6.0100000
 I:1 Type:2 Value: -2.000 K=    1.594 R12=  2.415 R34=  1.986 R12-R34=  0.429 EI=   9.4021072 E= 375.7334128
 ----------------------------------------------------------------
             Standard Nuclear Orientation (Angstroms)
    I     Atom           X                Y                Z
 ----------------------------------------------------------------
    1      C       0.0000000000     1.1658352882     1.0647301787
    2      C       0.0000000000     1.1943679948     2.4528080591
    3      C       0.0000000183    -0.0122342477     3.1462710682
    4      C       0.0000000000    -1.2066457505     2.4299626547
    5      C      -0.0000000119    -1.1519960355     1.0438166948
    6      N       0.0000000000     0.0136945225     0.3891258204
    7      C       0.0000000204     0.0046043105    -1.5967594086
    8      H       0.0000000268     2.0719426149     0.4698717946
    9      H      -0.0000000082     2.1437980313     2.9721218028
   10      H      -0.0000000198    -0.0223937848     4.2294092523
   11      H      -0.0000000274    -2.1654573133     2.9317298763
   12      H       0.0000000067    -2.0456028470     0.4297963020
   13      H      -0.0000000547     1.0751099347    -1.7316615831
   14      H      -0.9290268689    -0.5299718676    -1.7229193036
   15      H       0.9290269103    -0.5299718636    -1.7229193149
   16      Cl     -0.0000000128     0.0031836126    -4.0116383941
 ----------------------------------------------------------------
 Nuclear Repulsion Energy =         385.13551996 hartrees
 There are       34 alpha and       34 beta electrons
 Applying Cartesian multipole field
    Component          Value
    ---------          -----
     (2,0,0)        1.00000E-10
     (0,2,0)        2.00000E-11
     (0,0,2)       -3.00000E-11
 Nucleus-field energy     =    -0.0000000469 hartrees
 Requested basis set is 6-311G(d,p)
 There are 79 shells and 200 basis functions
 A cutoff of  1.0D-11 yielded   2506 shell pairs
 There are     16777 function pairs (     18139 Cartesian)
 Smallest overlap matrix eigenvalue = 4.88E-04
 Guess from superposition of atomic densities
 Warning:  Energy on first SCF cycle will be non-variational
 SAD guess density has 68.000000 electrons

 -----------------------------------------------------------------------
  General SCF calculation program by
  Eric Jon Sundstrom, Paul Horn, Yuezhi Mao, Dmitri Zuev, Alec White,
  David Stuck, Shaama M.S., Shane Yost, Joonho Lee, David Small,
  Daniel Levine, Susi Lehtola, Hugh Burton, Evgeny Epifanovsky,
  Bang C. Huynh
 -----------------------------------------------------------------------
 Hartree-Fock
 using 20 threads for integral computing
 -------------------------------------------------------
 OpenMP Integral computing Module                
 Release: version 2.0, May 2017, Q-Chem Inc. Pleasanton 
 -------------------------------------------------------
 A restricted SCF calculation will be
 performed using DIIS
 SCF converges when DIIS error is below 1.0e-08
 ---------------------------------------
  Cycle       Energy         DIIS error
 ---------------------------------------
    1    -738.8864201878      4.84e-02  
    2    -736.2796571734      4.24e-03  
    3    -736.3918260758      2.27e-03  
    4    -736.4164945801      7.63e-04  
    5    -736.4203014374      2.78e-04  
    6    -736.4207451109      6.02e-05  
    7    -736.4208036081      1.98e-05  
    8    -736.4208105279      6.01e-06  
    9    -736.4208110902      2.61e-06  
   10    -736.4208112318      1.24e-06  
   11    -736.4208112752      4.57e-07  
   12    -736.4208112806      1.51e-07  
   13    -736.4208112809      4.92e-08  
   14    -736.4208112810      1.99e-08  
   15    -736.4208112809      5.46e-09  Convergence criterion met
 ---------------------------------------
 SCF time:   CPU 49.83s  wall 3.00s 
 SCF   energy in the final basis set =     -736.4208112809
 Total energy in the final basis set =     -736.4208112809
 
 --------------------------------------------------------------
 
                    Orbital Energies (a.u.)
 --------------------------------------------------------------
 
 Alpha MOs
 -- Occupied --
******** -15.6510 -11.3396 -11.3392 -11.3339 -11.3149 -11.2961 -11.2960
-10.4096  -7.8768  -7.8759  -7.8759  -1.3355  -1.1486  -1.0984  -0.9936
 -0.9223  -0.9196  -0.8999  -0.7787  -0.7257  -0.7077  -0.6629  -0.6444
 -0.6371  -0.6293  -0.5999  -0.5800  -0.5168  -0.4444  -0.4047  -0.3302
 -0.3300  -0.3298
 -- Virtual --
  0.0491   0.0718   0.1087   0.1389   0.1418   0.1661   0.1766   0.1773
  0.2179   0.2228   0.2585   0.2798   0.3441   0.3666   0.3853   0.3979
  0.4158   0.4174   0.4261   0.4773   0.4926   0.5103   0.5150   0.5257
  0.5347   0.5547   0.5567   0.5677   0.5852   0.6012   0.6107   0.6706
  0.6726   0.6801   0.6901   0.7205   0.7471   0.7610   0.7666   0.7782
  0.7893   0.7979   0.8100   0.8712   0.8807   0.8872   0.9100   0.9407
  0.9491   0.9871   1.0161   1.0486   1.0990   1.1191   1.1250   1.1561
  1.1987   1.2089   1.2636   1.2742   1.2892   1.2905   1.2931   1.2960
  1.3056   1.3336   1.3852   1.4219   1.4309   1.5037   1.5480   1.5524
  1.6317   1.6552   1.6749   1.6800   1.6815   1.7003   1.7401   1.7548
  1.7758   1.8075   1.8338   1.8873   1.9111   1.9225   1.9426   1.9950
  2.0028   2.0051   2.0423   2.0670   2.0884   2.1233   2.1489   2.1669
  2.1781   2.2099   2.2564   2.2918   2.3044   2.3256   2.3421   2.4154
  2.4322   2.4776   2.5549   2.6174   2.6208   2.6230   2.6399   2.6511
  2.6849   2.7148   2.7323   2.7357   2.8331   2.8335   2.8439   2.8604
  2.8649   2.8810   2.8908   2.9156   2.9243   2.9327   2.9355   2.9955
  3.0508   3.0881   3.0927   3.1933   3.2441   3.2474   3.2646   3.3152
  3.3189   3.3718   3.5475   3.6966   3.7795   3.8190   3.9371   3.9716
  4.0688   4.1247   4.1632   4.2743   4.3363   4.3781   4.4196   4.7722
  4.8677   5.6525  10.3013  24.7164  24.9739  24.9987  25.1030  25.1978
 25.2549  26.4089  26.4157  26.7413  36.9745 219.1205
 --------------------------------------------------------------
 
          Ground-State Mulliken Net Atomic Charges

     Atom                 Charge (a.u.)
  ----------------------------------------
      1 C                     0.246813
      2 C                    -0.247652
      3 C                     0.062355
      4 C                    -0.246672
      5 C                     0.243235
      6 N                    -0.575909
      7 C                    -0.054305
      8 H                     0.146099
      9 H                     0.132501
     10 H                     0.137049
     11 H                     0.132570
     12 H                     0.147125
     13 H                     0.186516
     14 H                     0.200789
     15 H                     0.200789
     16 Cl                   -0.711302
  ----------------------------------------
  Sum of atomic charges =     0.000000

 -----------------------------------------------------------------
                    Cartesian Multipole Moments
 -----------------------------------------------------------------
    Charge (ESU x 10^10)
                 0.0000
    Dipole Moment (Debye)
         X       0.0000      Y      -0.0291      Z      14.4614
       Tot      14.4614
    Quadrupole Moments (Debye-Ang)
        XX     -59.0875     XY      -0.0000     YY     -47.3510
        XZ      -0.0000     YZ       0.0513     ZZ     -95.5609
    Octopole Moments (Debye-Ang^2)
       XXX       0.0000    XXY      -1.3167    XYY      -0.0000
       YYY       1.0101    XXZ       3.5042    XYZ       0.0000
       YYZ      22.7867    XZZ       0.0000    YZZ      -0.2283
       ZZZ     304.5197
    Hexadecapole Moments (Debye-Ang^3)
      XXXX     -73.7465   XXXY      -0.0000   XXYY     -68.7524
      XYYY      -0.0000   YYYY    -263.5351   XXXZ      -0.0000
      XXYZ       2.5174   XYYZ      -0.0000   YYYZ      -1.4786
      XXZZ    -456.7511   XYZZ      -0.0000   YYZZ    -443.9183
      XZZZ      -0.0000   YZZZ       0.8165   ZZZZ   -3227.6694
 -----------------------------------------------------------------
 Calculating analytic gradient of the SCF energy
 Array in AddRestraintEnergy
            1
    1   2.0010000
    2  -2.0000000
    31000.0000000
    4  16.0100000
    5   7.0100000
    6   7.0100000
    7   6.0100000
 Gradient of SCF Energy
            1           2           3           4           5           6
    1  -0.0000000  -0.0000000   0.0000000   0.0000000  -0.0000000   0.0000000
    2   0.0141509  -0.0011974  -0.0000659   0.0012160  -0.0141937  -0.0186723
    3   0.0010053   0.0005924   0.0048867   0.0006171   0.0006957  -4.1004755
            7           8           9          10          11          12
    1   0.0000000   0.0000000  -0.0000000  -0.0000000  -0.0000000   0.0000000
    2   0.0218180   0.0054170   0.0058633  -0.0000552  -0.0059048  -0.0052787
    3   8.2105354  -0.0047180   0.0028563   0.0063784   0.0027501  -0.0047635
           13          14          15          16
    1  -0.0000000  -0.0081235   0.0081235  -0.0000001
    2   0.0092321  -0.0050039  -0.0050039  -0.0023216
    3  -0.0086568  -0.0085949  -0.0085949  -4.0945137
 Max gradient component =       8.211E+00
 RMS gradient           =       1.451E+00
 Gradient time:  CPU 16.03 s  wall 0.80 s
 Geometry Optimization Parameters
   NAtoms,    NIC,     NZ,  NCons,   NDum,   NFix, NCnnct, MaxDiis
       16     144       0       0       0       0       0       0


** GEOMETRY OPTIMIZATION IN DELOCALIZED INTERNAL COORDINATES **
   Searching for a Minimum

   Optimization Cycle:   2

                       Coordinates (Angstroms)
     ATOM                X               Y               Z
      1  C         0.0000000000    1.1658352882    1.0647301787
      2  C         0.0000000000    1.1943679948    2.4528080591
      3  C         0.0000000183   -0.0122342477    3.1462710682
      4  C         0.0000000000   -1.2066457505    2.4299626547
      5  C        -0.0000000119   -1.1519960355    1.0438166948
      6  N         0.0000000000    0.0136945225    0.3891258204
      7  C         0.0000000204    0.0046043105   -1.5967594086
      8  H         0.0000000268    2.0719426149    0.4698717946
      9  H        -0.0000000082    2.1437980313    2.9721218028
     10  H        -0.0000000198   -0.0223937848    4.2294092523
     11  H        -0.0000000274   -2.1654573133    2.9317298763
     12  H         0.0000000067   -2.0456028470    0.4297963020
     13  H        -0.0000000547    1.0751099347   -1.7316615831
     14  H        -0.9290268689   -0.5299718676   -1.7229193036
     15  H         0.9290269103   -0.5299718636   -1.7229193149
     16  Cl       -0.0000000128    0.0031836126   -4.0116383941
   Point Group: c1    Number of degrees of freedom:    42


   Energy is   -736.420811281

 Hessian updated using BFGS update

 ** Taking Steepest Descent Step **
 Calculated Step too Large.  Step scaled by  0.062985
 Step Taken.  Stepsize is  0.300000

                             Maximum     Tolerance    Cnvgd?
         Gradient           2.552330      0.000300      NO
         Displacement       0.160759      0.001200      NO
         Energy change      9.404503      0.000001      NO


 New Cartesian Coordinates Obtained by Inverse Iteration

 Displacement from previous Coordinates is:  0.420705
 Array in AddRestraintEnergy
            1
    1   2.0010000
    2  -2.0000000
    31000.0000000
    4  16.0100000
    5   7.0100000
    6   7.0100000
    7   6.0100000
 I:1 Type:2 Value: -2.000 K=    1.594 R12=  2.366 R34=  2.122 R12-R34=  0.244 EI=   8.0259824 E= 372.9426290
 ----------------------------------------------------------------
             Standard Nuclear Orientation (Angstroms)
    I     Atom           X                Y                Z
 ----------------------------------------------------------------
    1      C       0.0000000000     1.1654697380     1.1020427820
    2      C       0.0000000000     1.1940664080     2.4898221259
    3      C       0.0000000185    -0.0123040966     3.1830159264
    4      C       0.0000000000    -1.2063293489     2.4667146462
    5      C      -0.0000000122    -1.1513094140     1.0808814708
    6      N       0.0000000000     0.0139278244     0.4264928295
    7      C       0.0000000206     0.0044358607    -1.6957203068
    8      H       0.0000000264     2.0714580039     0.5074353288
    9      H      -0.0000000079     2.1432867513     3.0090667501
   10      H      -0.0000000193    -0.0225827291     4.2659403758
   11      H      -0.0000000273    -2.1650428243     2.9682015180
   12      H       0.0000000062    -2.0446655669     0.4669111158
   13      H      -0.0000000549     1.0799676889    -1.8173423175
   14      H      -0.9334639585    -0.5326624870    -1.8087871297
   15      H       0.9334640010    -0.5326624832    -1.8087871427
   16      Cl     -0.0000000121     0.0032092744    -4.0621424729
 ----------------------------------------------------------------
 Nuclear Repulsion Energy =         380.96861141 hartrees
 There are       34 alpha and       34 beta electrons
 Applying Cartesian multipole field
    Component          Value
    ---------          -----
     (2,0,0)        1.00000E-10
     (0,2,0)        2.00000E-11
     (0,0,2)       -3.00000E-11
 Nucleus-field energy     =    -0.0000000485 hartrees
 Requested basis set is 6-311G(d,p)
 There are 79 shells and 200 basis functions
 A cutoff of  1.0D-11 yielded   2481 shell pairs
 There are     16674 function pairs (     18031 Cartesian)
 Smallest overlap matrix eigenvalue = 4.93E-04
 Guess from superposition of atomic densities
 Warning:  Energy on first SCF cycle will be non-variational
 SAD guess density has 68.000000 electrons

 -----------------------------------------------------------------------
  General SCF calculation program by
  Eric Jon Sundstrom, Paul Horn, Yuezhi Mao, Dmitri Zuev, Alec White,
  David Stuck, Shaama M.S., Shane Yost, Joonho Lee, David Small,
  Daniel Levine, Susi Lehtola, Hugh Burton, Evgeny Epifanovsky,
  Bang C. Huynh
 -----------------------------------------------------------------------
 Hartree-Fock
 using 20 threads for integral computing
 -------------------------------------------------------
 OpenMP Integral computing Module                
 Release: version 2.0, May 2017, Q-Chem Inc. Pleasanton 
 -------------------------------------------------------
 A restricted SCF calculation will be
 performed using DIIS
 SCF converges when DIIS error is below 1.0e-08
 ---------------------------------------
  Cycle       Energy         DIIS error
 ---------------------------------------
    1    -740.2063011302      4.82e-02  
    2    -737.6623753729      4.09e-03  
    3    -737.7709986544      2.07e-03  
    4    -737.7924619244      7.33e-04  
    5    -737.7960404589      2.65e-04  
    6    -737.7964447844      6.17e-05  
    7    -737.7965035746      2.05e-05  
    8    -737.7965111273      7.11e-06  
    9    -737.7965119382      3.17e-06  
   10    -737.7965121652      1.49e-06  
   11    -737.7965122291      5.10e-07  
   12    -737.7965122356      1.58e-07  
   13    -737.7965122360      5.46e-08  
   14    -737.7965122361      1.86e-08  
   15    -737.7965122360      5.03e-09  Convergence criterion met
 ---------------------------------------
 SCF time:   CPU 49.20s  wall 2.00s 
 SCF   energy in the final basis set =     -737.7965122360
 Total energy in the final basis set =     -737.7965122360
 
 --------------------------------------------------------------
 
                    Orbital Energies (a.u.)
 --------------------------------------------------------------
 
 Alpha MOs
 -- Occupied --
******** -15.6322 -11.3379 -11.3280 -11.3277 -11.3051 -11.2867 -11.2867
-10.4289  -7.8963  -7.8951  -7.8951  -1.3204  -1.1373  -1.0878  -0.9977
 -0.9185  -0.9106  -0.9000  -0.7703  -0.7141  -0.6985  -0.6533  -0.6392
 -0.6313  -0.6265  -0.5928  -0.5704  -0.4992  -0.4336  -0.3953  -0.3468
 -0.3460  -0.3458
 -- Virtual --
  0.0605   0.0810   0.1101   0.1396   0.1467   0.1503   0.1797   0.1803
  0.2197   0.2223   0.2572   0.2881   0.3472   0.3722   0.3940   0.4051
  0.4184   0.4236   0.4283   0.4759   0.4864   0.5164   0.5176   0.5252
  0.5312   0.5589   0.5634   0.5743   0.5911   0.6025   0.6148   0.6693
  0.6783   0.6806   0.7002   0.7272   0.7555   0.7628   0.7743   0.7750
  0.7974   0.8065   0.8143   0.8787   0.8858   0.8881   0.9214   0.9391
  0.9555   0.9958   1.0271   1.0430   1.1042   1.1117   1.1343   1.1626
  1.2084   1.2188   1.2541   1.2685   1.2730   1.2731   1.2736   1.2786
  1.3047   1.3354   1.3941   1.3956   1.4310   1.4868   1.5401   1.5588
  1.6251   1.6647   1.6745   1.6786   1.6985   1.7040   1.7541   1.7631
  1.7882   1.8173   1.8341   1.8750   1.9164   1.9318   1.9500   2.0041
  2.0145   2.0181   2.0373   2.0663   2.0880   2.1267   2.1556   2.1727
  2.1874   2.2080   2.2511   2.2835   2.3145   2.3218   2.3528   2.4240
  2.4374   2.4812   2.5661   2.6060   2.6062   2.6281   2.6486   2.6523
  2.6661   2.7120   2.7285   2.7323   2.8414   2.8428   2.8483   2.8682
  2.8724   2.8871   2.8983   2.9086   2.9202   2.9404   2.9416   3.0148
  3.0573   3.0984   3.1020   3.2015   3.2550   3.2659   3.2739   3.2824
  3.3105   3.3244   3.5505   3.7074   3.7867   3.8283   3.9430   3.9705
  4.0575   4.1113   4.1691   4.2839   4.3447   4.3869   4.4279   4.7795
  4.8767   5.6671  10.2841  24.7262  24.9568  25.0094  25.1148  25.2090
 25.2655  26.3926  26.3990  26.7359  36.9889 219.1030
 --------------------------------------------------------------
 
          Ground-State Mulliken Net Atomic Charges

     Atom                 Charge (a.u.)
  ----------------------------------------
      1 C                     0.232284
      2 C                    -0.246655
      3 C                     0.056263
      4 C                    -0.245762
      5 C                     0.229154
      6 N                    -0.560336
      7 C                    -0.082732
      8 H                     0.137807
      9 H                     0.127490
     10 H                     0.132934
     11 H                     0.127610
     12 H                     0.138776
     13 H                     0.194426
     14 H                     0.204247
     15 H                     0.204247
     16 Cl                   -0.649753
  ----------------------------------------
  Sum of atomic charges =     0.000000

 -----------------------------------------------------------------
                    Cartesian Multipole Moments
 -----------------------------------------------------------------
    Charge (ESU x 10^10)
                 0.0000
    Dipole Moment (Debye)
         X       0.0000      Y      -0.0268      Z      12.8853
       Tot      12.8853
    Quadrupole Moments (Debye-Ang)
        XX     -59.0377     XY      -0.0000     YY     -47.7754
        XZ      -0.0000     YZ       0.0463     ZZ     -91.9755
    Octopole Moments (Debye-Ang^2)
       XXX       0.0000    XXY      -1.3607    XYY      -0.0000
       YYY       1.0631    XXZ       2.1887    XYZ       0.0000
       YYZ      21.1797    XZZ      -0.0000    YZZ      -0.2029
       ZZZ     285.2639
    Hexadecapole Moments (Debye-Ang^3)
      XXXX     -73.5426   XXXY      -0.0000   XXYY     -68.8902
      XYYY      -0.0000   YYYY    -266.8221   XXXZ      -0.0000
      XXYZ       2.7137   XYYZ      -0.0000   YYYZ      -1.7043
      XXZZ    -466.9297   XYZZ      -0.0000   YYZZ    -454.6284
      XZZZ      -0.0000   YZZZ       0.7628   ZZZZ   -3242.9484
 -----------------------------------------------------------------
 Calculating analytic gradient of the SCF energy
 Array in AddRestraintEnergy
            1
    1   2.0010000
    2  -2.0000000
    31000.0000000
    4  16.0100000
    5   7.0100000
    6   7.0100000
    7   6.0100000
 Gradient of SCF Energy
            1           2           3           4           5           6
    1  -0.0000000  -0.0000000   0.0000000   0.0000000  -0.0000000   0.0000000
    2   0.0166084  -0.0018725   0.0000825   0.0017593  -0.0167643  -0.0166941
    3   0.0009568  -0.0001995   0.0047114  -0.0004255   0.0009940  -3.7897367
            7           8           9          10          11          12
    1   0.0000000   0.0000000  -0.0000000  -0.0000000  -0.0000000   0.0000000
    2   0.0196659   0.0049634   0.0056616  -0.0000525  -0.0056986  -0.0048474
    3   7.6145270  -0.0046477   0.0024254   0.0061410   0.0023228  -0.0048143
           13          14          15          16
    1  -0.0000000  -0.0098175   0.0098175  -0.0000001
    2   0.0109503  -0.0059565  -0.0059565  -0.0018492
    3  -0.0143608  -0.0142767  -0.0142767  -3.7893403
 Max gradient component =       7.615E+00
 RMS gradient           =       1.344E+00
 Gradient time:  CPU 15.77 s  wall 0.79 s
 Geometry Optimization Parameters
   NAtoms,    NIC,     NZ,  NCons,   NDum,   NFix, NCnnct, MaxDiis
       16     144       0       0       0       0       0       0


** GEOMETRY OPTIMIZATION IN DELOCALIZED INTERNAL COORDINATES **
   Searching for a Minimum

   Optimization Cycle:   3

                       Coordinates (Angstroms)
     ATOM                X               Y               Z
      1  C         0.0000000000    1.1654697380    1.1020427820
      2  C         0.0000000000    1.1940664080    2.4898221259
      3  C         0.0000000185   -0.0123040966    3.1830159264
      4  C         0.0000000000   -1.2063293489    2.4667146462
      5  C        -0.0000000122   -1.1513094140    1.0808814708
      6  N         0.0000000000    0.0139278244    0.4264928295
      7  C         0.0000000206    0.0044358607   -1.6957203068
      8  H         0.0000000264    2.0714580039    0.5074353288
      9  H        -0.0000000079    2.1432867513    3.0090667501
     10  H        -0.0000000193   -0.0225827291    4.2659403758
     11  H        -0.0000000273   -2.1650428243    2.9682015180
     12  H         0.0000000062   -2.0446655669    0.4669111158
     13  H        -0.0000000549    1.0799676889   -1.8173423175
     14  H        -0.9334639585   -0.5326624870   -1.8087871297
     15  H         0.9334640010   -0.5326624832   -1.8087871427
     16  Cl       -0.0000000121    0.0032092744   -4.0621424729
   Point Group: c1    Number of degrees of freedom:    42


   Energy is   -737.796512236

 Hessian updated using BFGS update

 ** Taking Steepest Descent Step **
 Calculated Step too Large.  Step scaled by  0.068056
 Step Taken.  Stepsize is  0.300000

                             Maximum     Tolerance    Cnvgd?
         Gradient           2.364861      0.000300      NO
         Displacement       0.160944      0.001200      NO
         Energy change     -1.375701      0.000001      NO


 New Cartesian Coordinates Obtained by Inverse Iteration

 Displacement from previous Coordinates is:  0.420408
 Array in AddRestraintEnergy
            1
    1   2.0010000
    2  -2.0000000
    31000.0000000
    4  16.0100000
    5   7.0100000
    6   7.0100000
    7   6.0100000
 I:1 Type:2 Value: -2.000 K=    1.594 R12=  2.318 R34=  2.258 R12-R34=  0.059 EI=   6.7582818 E= 370.4019794
 ----------------------------------------------------------------
             Standard Nuclear Orientation (Angstroms)
    I     Atom           X                Y                Z
 ----------------------------------------------------------------
    1      C       0.0000000000     1.1650036393     1.1392995522
    2      C       0.0000000000     1.1937250865     2.5268087245
    3      C       0.0000000188    -0.0123738457     3.2197477563
    4      C       0.0000000000    -1.2059763591     2.5034572982
    5      C      -0.0000000124    -1.1505441431     1.1179021044
    6      N       0.0000000000     0.0141446570     0.4637552570
    7      C       0.0000000208     0.0042809048    -1.7946734306
    8      H       0.0000000261     2.0708862933     0.5449709492
    9      H      -0.0000000076     2.1427388337     3.0459709331
   10      H      -0.0000000188    -0.0227650959     4.3024499500
   11      H      -0.0000000272    -2.1645879467     3.0046629171
   12      H       0.0000000057    -2.0436727276     0.5040280233
   13      H      -0.0000000551     1.0849562312    -1.9029689572
   14      H      -0.9379983290    -0.5354002222    -1.8946004725
   15      H       0.9379983724    -0.5354002186    -1.8946004871
   16      Cl     -0.0000000113     0.0032475129    -4.1124646182
 ----------------------------------------------------------------
 Nuclear Repulsion Energy =         377.16026113 hartrees
 There are       34 alpha and       34 beta electrons
 Applying Cartesian multipole field
    Component          Value
    ---------          -----
     (2,0,0)        1.00000E-10
     (0,2,0)        2.00000E-11
     (0,0,2)       -3.00000E-11
 Nucleus-field energy     =    -0.0000000502 hartrees
 Requested basis set is 6-311G(d,p)
 There are 79 shells and 200 basis functions
 A cutoff of  1.0D-11 yielded   2456 shell pairs
 There are     16455 function pairs (     17788 Cartesian)
 Smallest overlap matrix eigenvalue = 4.98E-04
 Guess from superposition of atomic densities
 Warning:  Energy on first SCF cycle will be non-variational
 SAD guess density has 68.000000 electrons

 -----------------------------------------------------------------------
  General SCF calculation program by
  Eric Jon Sundstrom, Paul Horn, Yuezhi Mao, Dmitri Zuev, Alec White,
  David Stuck, Shaama M.S., Shane Yost, Joonho Lee, David Small,
  Daniel Levine, Susi Lehtola, Hugh Burton, Evgeny Epifanovsky,
  Bang C. Huynh
 -----------------------------------------------------------------------
 Hartree-Fock
 using 20 threads for integral computing
 -------------------------------------------------------
 OpenMP Integral computing Module                
 Release: version 2.0, May 2017, Q-Chem Inc. Pleasanton 
 -------------------------------------------------------
 A restricted SCF calculation will be
 performed using DIIS
 SCF converges when DIIS error is below 1.0e-08
 ---------------------------------------
  Cycle       Energy         DIIS error
 ---------------------------------------
    1    -741.4426633415      4.81e-02  
    2    -738.9385178829      3.98e-03  
    3    -739.0434399256      1.88e-03  
    4    -739.0619642307      6.80e-04  
    5    -739.0650878939      2.33e-04  
    6    -739.0654019030      6.18e-05  
    7    -739.0654523684      1.95e-05  
    8    -739.0654593035      7.33e-06  
    9    -739.0654602208      3.36e-06  
   10    -739.0654604825      1.51e-06  
   11    -739.0654605498      4.99e-07  
   12    -739.0654605556      1.50e-07  
   13    -739.0654605560      5.39e-08  
   14    -739.0654605562      1.59e-08  
   15    -739.0654605562      4.29e-09  Convergence criterion met
 ---------------------------------------
 SCF time:   CPU 48.42s  wall 2.00s 
 SCF   energy in the final basis set =     -739.0654605562
 Total energy in the final basis set =     -739.0654605562
 
 --------------------------------------------------------------
 
                    Orbital Energies (a.u.)
 --------------------------------------------------------------
 
 Alpha MOs
 -- Occupied --
******** -15.6166 -11.3388 -11.3180 -11.3177 -11.2966 -11.2787 -11.2786
-10.4465  -7.9139  -7.9125  -7.9125  -1.3082  -1.1279  -1.0787  -1.0055
 -0.9197  -0.9008  -0.8948  -0.7625  -0.7043  -0.6906  -0.6453  -0.6364
 -0.6313  -0.6173  -0.5846  -0.5620  -0.4845  -0.4242  -0.3873  -0.3625
 -0.3603  -0.3601
 -- Virtual --
  0.0702   0.0889   0.1088   0.1375   0.1464   0.1510   0.1824   0.1837
  0.2214   0.2215   0.2559   0.2960   0.3501   0.3769   0.4012   0.4114
  0.4195   0.4304   0.4316   0.4656   0.4875   0.5106   0.5238   0.5258
  0.5343   0.5614   0.5704   0.5804   0.5962   0.6050   0.6184   0.6609
  0.6837   0.6887   0.7088   0.7329   0.7629   0.7630   0.7712   0.7822
  0.8046   0.8139   0.8179   0.8814   0.8877   0.8945   0.9337   0.9359
  0.9641   1.0032   1.0359   1.0365   1.0886   1.1148   1.1421   1.1684
  1.2179   1.2273   1.2320   1.2473   1.2571   1.2583   1.2617   1.2811
  1.3131   1.3346   1.3717   1.4047   1.4354   1.4708   1.5349   1.5657
  1.6200   1.6674   1.6750   1.6753   1.6989   1.7203   1.7672   1.7703
  1.8001   1.8258   1.8364   1.8545   1.9150   1.9395   1.9564   2.0120
  2.0222   2.0286   2.0431   2.0690   2.0877   2.1317   2.1619   2.1764
  2.1956   2.2085   2.2415   2.2681   2.3207   2.3232   2.3620   2.4304
  2.4452   2.4850   2.5755   2.5927   2.5928   2.6352   2.6422   2.6569
  2.6585   2.7039   2.7242   2.7348   2.8385   2.8488   2.8605   2.8753
  2.8810   2.8933   2.9030   2.9053   2.9146   2.9481   2.9498   3.0286
  3.0636   3.1075   3.1100   3.2089   3.2221   3.2651   3.2807   3.2843
  3.3069   3.3325   3.5539   3.7171   3.7936   3.8363   3.9556   3.9736
  4.0481   4.0966   4.1725   4.2940   4.3522   4.3938   4.4369   4.7863
  4.8925   5.6797  10.2692  24.7349  24.9441  25.0192  25.1251  25.2187
 25.2749  26.3783  26.3843  26.7361  37.0014 219.0880
 --------------------------------------------------------------
 
          Ground-State Mulliken Net Atomic Charges

     Atom                 Charge (a.u.)
  ----------------------------------------
      1 C                     0.217306
      2 C                    -0.245819
      3 C                     0.051027
      4 C                    -0.244970
      5 C                     0.214625
      6 N                    -0.536508
      7 C                    -0.111968
      8 H                     0.131189
      9 H                     0.123244
     10 H                     0.129361
     11 H                     0.123399
     12 H                     0.132089
     13 H                     0.198876
     14 H                     0.205112
     15 H                     0.205112
     16 Cl                   -0.592074
  ----------------------------------------
  Sum of atomic charges =     0.000000

 -----------------------------------------------------------------
                    Cartesian Multipole Moments
 -----------------------------------------------------------------
    Charge (ESU x 10^10)
                 0.0000
    Dipole Moment (Debye)
         X       0.0000      Y      -0.0249      Z      11.4764
       Tot      11.4764
    Quadrupole Moments (Debye-Ang)
        XX     -58.9777     XY      -0.0000     YY     -48.1187
        XZ      -0.0000     YZ       0.0419     ZZ     -88.5305
    Octopole Moments (Debye-Ang^2)
       XXX       0.0000    XXY      -1.3933    XYY      -0.0000
       YYY       1.1037    XXZ       0.9843    XYZ       0.0000
       YYZ      19.7590    XZZ      -0.0000    YZZ      -0.1833
       ZZZ     267.0710
    Hexadecapole Moments (Debye-Ang^3)
      XXXX     -73.3591   XXXY      -0.0000   XXYY     -68.9947
      XYYY      -0.0000   YYYY    -269.5167   XXXZ      -0.0000
      XXYZ       2.8949   XYYZ      -0.0000   YYYZ      -1.9077
      XXZZ    -477.4675   XYZZ      -0.0000   YYZZ    -465.4611
      XZZZ      -0.0000   YZZZ       0.7147   ZZZZ   -3260.8299
 -----------------------------------------------------------------
 Calculating analytic gradient of the SCF energy
 Array in AddRestraintEnergy
            1
    1   2.0010000
    2  -2.0000000
    31000.0000000
    4  16.0100000
    5   7.0100000
    6   7.0100000
    7   6.0100000
 Gradient of SCF Energy
            1           2           3           4           5           6
    1  -0.0000000  -0.0000000   0.0000000   0.0000000  -0.0000000   0.0000000
    2   0.0183444  -0.0023771   0.0001696   0.0021914  -0.0185646  -0.0148554
    3   0.0007664  -0.0008008   0.0044449  -0.0011637   0.0010288  -3.4777864
            7           8           9          10          11          12
    1   0.0000000   0.0000000  -0.0000000  -0.0000000  -0.0000000   0.0000000
    2   0.0175543   0.0046071   0.0054581  -0.0000499  -0.0054907  -0.0045068
    3   7.0115752  -0.0045580   0.0020667   0.0059003   0.0019677  -0.0048053
           13          14          15          16
    1  -0.0000000  -0.0117667   0.0117667  -0.0000000
    2   0.0130283  -0.0070499  -0.0070499  -0.0014091
    3  -0.0186991  -0.0185870  -0.0185870  -3.4827627
 Max gradient component =       7.012E+00
 RMS gradient           =       1.237E+00
 Gradient time:  CPU 15.46 s  wall 0.77 s
 Geometry Optimization Parameters
   NAtoms,    NIC,     NZ,  NCons,   NDum,   NFix, NCnnct, MaxDiis
       16     144       0       0       0       0       0       0


** GEOMETRY OPTIMIZATION IN DELOCALIZED INTERNAL COORDINATES **
   Searching for a Minimum

   Optimization Cycle:   4

                       Coordinates (Angstroms)
     ATOM                X               Y               Z
      1  C         0.0000000000    1.1650036393    1.1392995522
      2  C         0.0000000000    1.1937250865    2.5268087245
      3  C         0.0000000188   -0.0123738457    3.2197477563
      4  C         0.0000000000   -1.2059763591    2.5034572982
      5  C        -0.0000000124   -1.1505441431    1.1179021044
      6  N         0.0000000000    0.0141446570    0.4637552570
      7  C         0.0000000208    0.0042809048   -1.7946734306
      8  H         0.0000000261    2.0708862933    0.5449709492
      9  H        -0.0000000076    2.1427388337    3.0459709331
     10  H        -0.0000000188   -0.0227650959    4.3024499500
     11  H        -0.0000000272   -2.1645879467    3.0046629171
     12  H         0.0000000057   -2.0436727276    0.5040280233
     13  H        -0.0000000551    1.0849562312   -1.9029689572
     14  H        -0.9379983290   -0.5354002222   -1.8946004725
     15  H         0.9379983724   -0.5354002186   -1.8946004871
     16  Cl       -0.0000000113    0.0032475129   -4.1124646182
   Point Group: c1    Number of degrees of freedom:    42


   Energy is   -739.065460556

 Hessian updated using BFGS update

 ** Taking Steepest Descent Step **
 Calculated Step too Large.  Step scaled by  0.074053
 Step Taken.  Stepsize is  0.300000

                             Maximum     Tolerance    Cnvgd?
         Gradient           2.176116      0.000300      NO
         Displacement       0.161147      0.001200      NO
         Energy change     -1.268948      0.000001      NO


 New Cartesian Coordinates Obtained by Inverse Iteration

 Displacement from previous Coordinates is:  0.420025
 Array in AddRestraintEnergy
            1
    1   2.0010000
    2  -2.0000000
    31000.0000000
    4  16.0100000
    5   7.0100000
    6   7.0100000
    7   6.0100000
 I:1 Type:2 Value: -2.000 K=    1.594 R12=  2.269 R34=  2.395 R12-R34= -0.126 EI=   5.5990556 E= 368.0885011
 ----------------------------------------------------------------
             Standard Nuclear Orientation (Angstroms)
    I     Atom           X                Y                Z
 ----------------------------------------------------------------
    1      C       0.0000000000     1.1644405248     1.1764970496
    2      C       0.0000000000     1.1933431930     2.5637602715
    3      C       0.0000000190    -0.0124436011     3.2564572812
    4      C       0.0000000000    -1.2055855138     2.5401786286
    5      C      -0.0000000127    -1.1496988953     1.1548729813
    6      N       0.0000000000     0.0143487108     0.5009062032
    7      C       0.0000000210     0.0041383899    -1.8936174077
    8      H       0.0000000258     2.0702284134     0.5824778361
    9      H      -0.0000000073     2.1421512318     3.0828265423
   10      H      -0.0000000184    -0.0229425813     4.3389272025
   11      H      -0.0000000272    -2.1640908017     3.0410988864
   12      H       0.0000000053    -2.0426185089     0.5411401152
   13      H      -0.0000000554     1.0900533745    -1.9885221380
   14      H      -0.9426123890    -0.5381762717    -1.9803362701
   15      H       0.9426124335    -0.5381762682    -1.9803362864
   16      Cl     -0.0000000106     0.0032912035    -4.1625853959
 ----------------------------------------------------------------
 Nuclear Repulsion Energy =         373.68755668 hartrees
 There are       34 alpha and       34 beta electrons
 Applying Cartesian multipole field
    Component          Value
    ---------          -----
     (2,0,0)        1.00000E-10
     (0,2,0)        2.00000E-11
     (0,0,2)       -3.00000E-11
 Nucleus-field energy     =    -0.0000000519 hartrees
 Requested basis set is 6-311G(d,p)
 There are 79 shells and 200 basis functions
 A cutoff of  1.0D-11 yielded   2437 shell pairs
 There are     16331 function pairs (     17658 Cartesian)
 Smallest overlap matrix eigenvalue = 5.03E-04
 Guess from superposition of atomic densities
 Warning:  Energy on first SCF cycle will be non-variational
 SAD guess density has 68.000000 electrons

 -----------------------------------------------------------------------
  General SCF calculation program by
  Eric Jon Sundstrom, Paul Horn, Yuezhi Mao, Dmitri Zuev, Alec White,
  David Stuck, Shaama M.S., Shane Yost, Joonho Lee, David Small,
  Daniel Levine, Susi Lehtola, Hugh Burton, Evgeny Epifanovsky,
  Bang C. Huynh
 -----------------------------------------------------------------------
 Hartree-Fock
 using 20 threads for integral computing
 -------------------------------------------------------
 OpenMP Integral computing Module                
 Release: version 2.0, May 2017, Q-Chem Inc. Pleasanton 
 -------------------------------------------------------
 A restricted SCF calculation will be
 performed using DIIS
 SCF converges when DIIS error is below 1.0e-08
 ---------------------------------------
  Cycle       Energy         DIIS error
 ---------------------------------------
    1    -742.5892825951      4.81e-02  
    2    -740.1065109880      3.91e-03  
    3    -740.2077135121      1.75e-03  
    4    -740.2241101738      6.19e-04  
    5    -740.2267401320      1.84e-04  
    6    -740.2269422802      6.24e-05  
    7    -740.2269815094      1.75e-05  
    8    -740.2269871966      7.06e-06  
    9    -740.2269880905      3.31e-06  
   10    -740.2269883414      1.40e-06  
   11    -740.2269884004      4.64e-07  
   12    -740.2269884052      1.40e-07  
   13    -740.2269884056      5.17e-08  
   14    -740.2269884059      1.31e-08  
   15    -740.2269884059      3.47e-09  Convergence criterion met
 ---------------------------------------
 SCF time:   CPU 47.60s  wall 2.00s 
 SCF   energy in the final basis set =     -740.2269884059
 Total energy in the final basis set =     -740.2269884059
 
 --------------------------------------------------------------
 
                    Orbital Energies (a.u.)
 --------------------------------------------------------------
 
 Alpha MOs
 -- Occupied --
******** -15.6043 -11.3377 -11.3097 -11.3095 -11.2896 -11.2720 -11.2719
-10.4614  -7.9289  -7.9274  -7.9274  -1.2987  -1.1205  -1.0714  -1.0151
 -0.9197  -0.8929  -0.8890  -0.7558  -0.6963  -0.6841  -0.6390  -0.6340
 -0.6299  -0.6098  -0.5772  -0.5552  -0.4726  -0.4164  -0.3807  -0.3768
 -0.3724  -0.3722
 -- Virtual --
  0.0783   0.0956   0.1070   0.1366   0.1471   0.1546   0.1844   0.1867
  0.2207   0.2227   0.2545   0.3027   0.3522   0.3807   0.4069   0.4166
  0.4207   0.4337   0.4371   0.4562   0.4873   0.5036   0.5263   0.5297
  0.5386   0.5635   0.5762   0.5856   0.6005   0.6071   0.6211   0.6545
  0.6884   0.6951   0.7159   0.7374   0.7623   0.7689   0.7691   0.7881
  0.8098   0.8174   0.8214   0.8774   0.8931   0.8998   0.9326   0.9454
  0.9736   1.0090   1.0276   1.0442   1.0678   1.1231   1.1482   1.1727
  1.2097   1.2251   1.2276   1.2343   1.2452   1.2460   1.2586   1.2878
  1.3200   1.3346   1.3570   1.4123   1.4292   1.4593   1.5342   1.5702
  1.6159   1.6601   1.6713   1.6813   1.7007   1.7303   1.7763   1.7769
  1.8063   1.8318   1.8329   1.8404   1.9133   1.9458   1.9617   2.0187
  2.0283   2.0356   2.0531   2.0743   2.0887   2.1371   2.1672   2.1751
  2.2024   2.2105   2.2303   2.2522   2.3171   2.3305   2.3694   2.4344
  2.4530   2.4873   2.5803   2.5815   2.5815   2.6173   2.6423   2.6636
  2.6654   2.6984   2.7202   2.7368   2.8329   2.8540   2.8702   2.8817
  2.8878   2.8983   2.8984   2.9105   2.9116   2.9550   2.9565   3.0364
  3.0693   3.1152   3.1165   3.1947   3.2153   3.2730   3.2840   3.2953
  3.3096   3.3391   3.5573   3.7234   3.7998   3.8424   3.9643   3.9802
  4.0405   4.0809   4.1733   4.3019   4.3586   4.3992   4.4432   4.7920
  4.8976   5.6900  10.2574  24.7423  24.9343  25.0276  25.1337  25.2270
 25.2829  26.3667  26.3724  26.7428  37.0123 219.0762
 --------------------------------------------------------------
 
          Ground-State Mulliken Net Atomic Charges

     Atom                 Charge (a.u.)
  ----------------------------------------
      1 C                     0.203783
      2 C                    -0.245230
      3 C                     0.046854
      4 C                    -0.244440
      5 C                     0.201492
      6 N                    -0.511740
      7 C                    -0.137987
      8 H                     0.126250
      9 H                     0.119839
     10 H                     0.126409
     11 H                     0.120010
     12 H                     0.127064
     13 H                     0.200384
     14 H                     0.204076
     15 H                     0.204076
     16 Cl                   -0.540840
  ----------------------------------------
  Sum of atomic charges =     0.000000

 -----------------------------------------------------------------
                    Cartesian Multipole Moments
 -----------------------------------------------------------------
    Charge (ESU x 10^10)
                 0.0000
    Dipole Moment (Debye)
         X       0.0000      Y      -0.0236      Z      10.2819
       Tot      10.2819
    Quadrupole Moments (Debye-Ang)
        XX     -58.9126     XY      -0.0000     YY     -48.3773
        XZ      -0.0000     YZ       0.0383     ZZ     -85.4099
    Octopole Moments (Debye-Ang^2)
       XXX       0.0000    XXY      -1.4172    XYY      -0.0000
       YYY       1.1340    XXZ      -0.0745    XYZ       0.0000
       YYZ      18.5764    XZZ      -0.0000    YZZ      -0.1682
       ZZZ     251.1642
    Hexadecapole Moments (Debye-Ang^3)
      XXXX     -73.1998   XXXY      -0.0000   XXYY     -69.0624
      XYYY      -0.0000   YYYY    -271.5797   XXXZ      -0.0000
      XXYZ       3.0632   XYYZ      -0.0000   YYYZ      -2.0911
      XXZZ    -488.4724   XYZZ      -0.0000   YYZZ    -476.4819
      XZZZ      -0.0000   YZZZ       0.6732   ZZZZ   -3286.1046
 -----------------------------------------------------------------
 Calculating analytic gradient of the SCF energy
 Array in AddRestraintEnergy
            1
    1   2.0010000
    2  -2.0000000
    31000.0000000
    4  16.0100000
    5   7.0100000
    6   7.0100000
    7   6.0100000
 Gradient of SCF Energy
            1           2           3           4           5           6
    1  -0.0000000  -0.0000000   0.0000000   0.0000000  -0.0000000   0.0000000
    2   0.0194072  -0.0027483   0.0002185   0.0025261  -0.0196674  -0.0131244
    3   0.0005729  -0.0012268   0.0041273  -0.0016580   0.0009803  -3.1647998
            7           8           9          10          11          12
    1   0.0000000   0.0000000  -0.0000000  -0.0000000  -0.0000000   0.0000000
    2   0.0155285   0.0043280   0.0052546  -0.0000476  -0.0052835  -0.0042390
    3   6.4020007  -0.0044448   0.0017818   0.0056599   0.0016862  -0.0047453
           13          14          15          16
    1  -0.0000000  -0.0139845   0.0139845  -0.0000000
    2   0.0154430  -0.0082911  -0.0082911  -0.0010135
    3  -0.0219602  -0.0218075  -0.0218075  -3.1743593
 Max gradient component =       6.402E+00
 RMS gradient           =       1.128E+00
 Gradient time:  CPU 15.27 s  wall 0.76 s
 Geometry Optimization Parameters
   NAtoms,    NIC,     NZ,  NCons,   NDum,   NFix, NCnnct, MaxDiis
       16     144       0       0       0       0       0       0


** GEOMETRY OPTIMIZATION IN DELOCALIZED INTERNAL COORDINATES **
   Searching for a Minimum

   Optimization Cycle:   5

                       Coordinates (Angstroms)
     ATOM                X               Y               Z
      1  C         0.0000000000    1.1644405248    1.1764970496
      2  C         0.0000000000    1.1933431930    2.5637602715
      3  C         0.0000000190   -0.0124436011    3.2564572812
      4  C         0.0000000000   -1.2055855138    2.5401786286
      5  C        -0.0000000127   -1.1496988953    1.1548729813
      6  N         0.0000000000    0.0143487108    0.5009062032
      7  C         0.0000000210    0.0041383899   -1.8936174077
      8  H         0.0000000258    2.0702284134    0.5824778361
      9  H        -0.0000000073    2.1421512318    3.0828265423
     10  H        -0.0000000184   -0.0229425813    4.3389272025
     11  H        -0.0000000272   -2.1640908017    3.0410988864
     12  H         0.0000000053   -2.0426185089    0.5411401152
     13  H        -0.0000000554    1.0900533745   -1.9885221380
     14  H        -0.9426123890   -0.5381762717   -1.9803362701
     15  H         0.9426124335   -0.5381762682   -1.9803362864
     16  Cl       -0.0000000106    0.0032912035   -4.1625853959
   Point Group: c1    Number of degrees of freedom:    42


   Energy is   -740.226988406

 Hessian updated using BFGS update

 ** Taking Steepest Descent Step **
 Calculated Step too Large.  Step scaled by  0.081256
 Step Taken.  Stepsize is  0.300000

                             Maximum     Tolerance    Cnvgd?
         Gradient           1.986118      0.000300      NO
         Displacement       0.161385      0.001200      NO
         Energy change     -1.161528      0.000001      NO


 New Cartesian Coordinates Obtained by Inverse Iteration

 Displacement from previous Coordinates is:  0.419523
 Array in AddRestraintEnergy
            1
    1   2.0010000
    2  -2.0000000
    31000.0000000
    4  16.0100000
    5   7.0100000
    6   7.0100000
    7   6.0100000
 I:1 Type:2 Value: -2.000 K=    1.594 R12=  2.220 R34=  2.531 R12-R34= -0.311 EI=   4.5483813 E= 365.9839514
 ----------------------------------------------------------------
             Standard Nuclear Orientation (Angstroms)
    I     Atom           X                Y                Z
 ----------------------------------------------------------------
    1      C       0.0000000000     1.1637822617     1.2136291623
    2      C       0.0000000000     1.1929206168     2.6006651625
    3      C       0.0000000192    -0.0125133359     3.2931312563
    4      C       0.0000000000    -1.2051563332     2.5768644382
    5      C      -0.0000000129    -1.1487726207     1.1917867556
    6      N       0.0000000000     0.0145420676     0.5379437273
    7      C       0.0000000211     0.0040072440    -1.9925467599
    8      H       0.0000000255     2.0694814943     0.6199497040
    9      H      -0.0000000071     2.1415215748     3.1196203387
   10      H      -0.0000000180    -0.0231160701     4.3753567773
   11      H      -0.0000000271    -2.1635495518     3.0774918750
   12      H       0.0000000049    -2.0414960082     0.5782376342
   13      H      -0.0000000557     1.0952292173    -2.0739732717
   14      H      -0.9472808732    -0.5409772317    -2.0659642238
   15      H       0.9472809185    -0.5409772283    -2.0659642417
   16      Cl     -0.0000000098     0.0033365030    -4.2124828347
 ----------------------------------------------------------------
 Nuclear Repulsion Energy =         370.53233267 hartrees
 There are       34 alpha and       34 beta electrons
 Applying Cartesian multipole field
    Component          Value
    ---------          -----
     (2,0,0)        1.00000E-10
     (0,2,0)        2.00000E-11
     (0,0,2)       -3.00000E-11
 Nucleus-field energy     =    -0.0000000537 hartrees
 Requested basis set is 6-311G(d,p)
 There are 79 shells and 200 basis functions
 A cutoff of  1.0D-11 yielded   2423 shell pairs
 There are     16225 function pairs (     17530 Cartesian)
 Smallest overlap matrix eigenvalue = 5.07E-04
 Guess from superposition of atomic densities
 Warning:  Energy on first SCF cycle will be non-variational
 SAD guess density has 68.000000 electrons

 -----------------------------------------------------------------------
  General SCF calculation program by
  Eric Jon Sundstrom, Paul Horn, Yuezhi Mao, Dmitri Zuev, Alec White,
  David Stuck, Shaama M.S., Shane Yost, Joonho Lee, David Small,
  Daniel Levine, Susi Lehtola, Hugh Burton, Evgeny Epifanovsky,
  Bang C. Huynh
 -----------------------------------------------------------------------
 Hartree-Fock
 using 20 threads for integral computing
 -------------------------------------------------------
 OpenMP Integral computing Module                
 Release: version 2.0, May 2017, Q-Chem Inc. Pleasanton 
 -------------------------------------------------------
 A restricted SCF calculation will be
 performed using DIIS
 SCF converges when DIIS error is below 1.0e-08
 ---------------------------------------
  Cycle       Energy         DIIS error
 ---------------------------------------
    1    -743.6417105764      4.82e-02  
    2    -741.1652850350      3.88e-03  
    3    -741.2630841093      1.67e-03  
    4    -741.2781001062      5.70e-04  
    5    -741.2803449492      1.29e-04  
    6    -741.2804553030      6.15e-05  
    7    -741.2804837838      1.54e-05  
    8    -741.2804882585      6.70e-06  
    9    -741.2804890803      3.13e-06  
   10    -741.2804892970      1.26e-06  
   11    -741.2804893450      4.29e-07  
   12    -741.2804893489      1.36e-07  
   13    -741.2804893491      4.87e-08  
   14    -741.2804893495      1.05e-08  
   15    -741.2804893494      2.82e-09  Convergence criterion met
 ---------------------------------------
 SCF time:   CPU 46.78s  wall 2.00s 
 SCF   energy in the final basis set =     -741.2804893494
 Total energy in the final basis set =     -741.2804893494
 
 --------------------------------------------------------------
 
                    Orbital Energies (a.u.)
 --------------------------------------------------------------
 
 Alpha MOs
 -- Occupied --
******** -15.5949 -11.3353 -11.3030 -11.3029 -11.2840 -11.2666 -11.2666
-10.4739  -7.9415  -7.9397  -7.9397  -1.2914  -1.1147  -1.0655  -1.0252
 -0.9182  -0.8867  -0.8839  -0.7504  -0.6901  -0.6789  -0.6343  -0.6317
 -0.6273  -0.6037  -0.5711  -0.5497  -0.4633  -0.4102  -0.3896  -0.3824
 -0.3822  -0.3754
 -- Virtual --
  0.0847   0.1009   0.1070   0.1374   0.1484   0.1574   0.1861   0.1890
  0.2200   0.2236   0.2531   0.3083   0.3534   0.3841   0.4112   0.4209
  0.4219   0.4361   0.4401   0.4504   0.4855   0.4973   0.5278   0.5338
  0.5424   0.5652   0.5808   0.5899   0.6035   0.6081   0.6232   0.6497
  0.6925   0.6991   0.7215   0.7409   0.7616   0.7674   0.7742   0.7929
  0.8104   0.8164   0.8260   0.8712   0.8980   0.9041   0.9323   0.9555
  0.9827   1.0133   1.0184   1.0505   1.0554   1.1310   1.1525   1.1762
  1.1884   1.2033   1.2336   1.2339   1.2373   1.2401   1.2651   1.2933
  1.3257   1.3371   1.3500   1.4101   1.4185   1.4525   1.5360   1.5736
  1.6127   1.6519   1.6668   1.6868   1.7028   1.7363   1.7811   1.7840
  1.7981   1.8265   1.8387   1.8440   1.9129   1.9509   1.9659   2.0241
  2.0330   2.0409   2.0625   2.0812   2.0915   2.1425   2.1681   2.1719
  2.2077   2.2116   2.2193   2.2398   2.3104   2.3364   2.3754   2.4372
  2.4596   2.4889   2.5714   2.5722   2.5776   2.6038   2.6474   2.6687
  2.6710   2.6952   2.7174   2.7382   2.8276   2.8573   2.8778   2.8863
  2.8924   2.8942   2.9018   2.9093   2.9158   2.9609   2.9621   3.0432
  3.0743   3.1215   3.1217   3.1846   3.2205   3.2781   3.2852   3.3032
  3.3146   3.3445   3.5604   3.7266   3.8049   3.8471   3.9670   3.9887
  4.0342   4.0655   4.1727   4.3074   4.3639   4.4033   4.4469   4.7969
  4.8931   5.6981  10.2485  24.7485  24.9259  25.0348  25.1408  25.2338
 25.2897  26.3579  26.3632  26.7557  37.0215 219.0676
 --------------------------------------------------------------
 
          Ground-State Mulliken Net Atomic Charges

     Atom                 Charge (a.u.)
  ----------------------------------------
      1 C                     0.192442
      2 C                    -0.244802
      3 C                     0.043671
      4 C                    -0.244098
      5 C                     0.190480
      6 N                    -0.489701
      7 C                    -0.159628
      8 H                     0.122740
      9 H                     0.117170
     10 H                     0.124024
     11 H                     0.117343
     12 H                     0.123459
     13 H                     0.199644
     14 H                     0.201761
     15 H                     0.201761
     16 Cl                   -0.496267
  ----------------------------------------
  Sum of atomic charges =     0.000000

 -----------------------------------------------------------------
                    Cartesian Multipole Moments
 -----------------------------------------------------------------
    Charge (ESU x 10^10)
                 0.0000
    Dipole Moment (Debye)
         X       0.0000      Y      -0.0227      Z       9.2917
       Tot       9.2918
    Quadrupole Moments (Debye-Ang)
        XX     -58.8452     XY      -0.0000     YY     -48.5621
        XZ      -0.0000     YZ       0.0356     ZZ     -82.6449
    Octopole Moments (Debye-Ang^2)
       XXX       0.0000    XXY      -1.4348    XYY      -0.0000
       YYY       1.1562    XXZ      -0.9949    XYZ       0.0000
       YYZ      17.6192    XZZ      -0.0000    YZZ      -0.1563
       ZZZ     237.7378
    Hexadecapole Moments (Debye-Ang^3)
      XXXX     -73.0629   XXXY      -0.0000   XXYY     -69.0957
      XYYY      -0.0000   YYYY    -273.0821   XXXZ      -0.0000
      XXYZ       3.2214   XYYZ      -0.0000   YYYZ      -2.2584
      XXZZ    -499.9451   XYZZ      -0.0000   YYZZ    -487.7091
      XZZZ      -0.0000   YZZZ       0.6368   ZZZZ   -3319.9006
 -----------------------------------------------------------------
 Calculating analytic gradient of the SCF energy
 Array in AddRestraintEnergy
            1
    1   2.0010000
    2  -2.0000000
    31000.0000000
    4  16.0100000
    5   7.0100000
    6   7.0100000
    7   6.0100000
 Gradient of SCF Energy
            1           2           3           4           5           6
    1  -0.0000000  -0.0000000   0.0000000   0.0000000  -0.0000000   0.0000000
    2   0.0199190  -0.0030272   0.0002442   0.0027894  -0.0202058  -0.0114863
    3   0.0004231  -0.0015126   0.0037852  -0.0019713   0.0009228  -2.8513281
            7           8           9          10          11          12
    1   0.0000000   0.0000000  -0.0000000  -0.0000000  -0.0000000   0.0000000
    2   0.0136081   0.0040988   0.0050507  -0.0000455  -0.0050766  -0.0040183
    3   5.7871883  -0.0043111   0.0015589   0.0054196   0.0014667  -0.0046463
           13          14          15          16
    1  -0.0000000  -0.0164248   0.0164248  -0.0000000
    2   0.0181288  -0.0096564  -0.0096564  -0.0006666
    3  -0.0244583  -0.0242495  -0.0242495  -2.8640381
 Max gradient component =       5.787E+00
 RMS gradient           =       1.019E+00
 Gradient time:  CPU 14.93 s  wall 0.75 s
 Geometry Optimization Parameters
   NAtoms,    NIC,     NZ,  NCons,   NDum,   NFix, NCnnct, MaxDiis
       16     144       0       0       0       0       0       0


** GEOMETRY OPTIMIZATION IN DELOCALIZED INTERNAL COORDINATES **
   Searching for a Minimum

   Optimization Cycle:   6

                       Coordinates (Angstroms)
     ATOM                X               Y               Z
      1  C         0.0000000000    1.1637822617    1.2136291623
      2  C         0.0000000000    1.1929206168    2.6006651625
      3  C         0.0000000192   -0.0125133359    3.2931312563
      4  C         0.0000000000   -1.2051563332    2.5768644382
      5  C        -0.0000000129   -1.1487726207    1.1917867556
      6  N         0.0000000000    0.0145420676    0.5379437273
      7  C         0.0000000211    0.0040072440   -1.9925467599
      8  H         0.0000000255    2.0694814943    0.6199497040
      9  H        -0.0000000071    2.1415215748    3.1196203387
     10  H        -0.0000000180   -0.0231160701    4.3753567773
     11  H        -0.0000000271   -2.1635495518    3.0774918750
     12  H         0.0000000000   -2.0414960082    0.5782376342
     13  H        -0.0000000557    1.0952292173   -2.0739732717
     14  H        -0.9472808732   -0.5409772317   -2.0659642238
     15  H         0.9472809185   -0.5409772283   -2.0659642417
     16  Cl       -0.0000000098    0.0033365030   -4.2124828347
   Point Group: c1    Number of degrees of freedom:    42


   Energy is   -741.280489349

 Hessian updated using BFGS update

 ** Taking Steepest Descent Step **
 Calculated Step too Large.  Step scaled by  0.090061
 Step Taken.  Stepsize is  0.300000

                             Maximum     Tolerance    Cnvgd?
         Gradient           1.795213      0.000300      NO
         Displacement       0.161679      0.001200      NO
         Energy change     -1.053501      0.000001      NO


 New Cartesian Coordinates Obtained by Inverse Iteration

 Displacement from previous Coordinates is:  0.418907
 Array in AddRestraintEnergy
            1
    1   2.0010000
    2  -2.0000000
    31000.0000000
    4  16.0100000
    5   7.0100000
    6   7.0100000
    7   6.0100000
 I:1 Type:2 Value: -2.000 K=    1.594 R12=  2.171 R34=  2.666 R12-R34= -0.496 EI=   3.6063633 E= 364.0735538
 ----------------------------------------------------------------
             Standard Nuclear Orientation (Angstroms)
    I     Atom           X                Y                Z
 ----------------------------------------------------------------
    1      C       0.0000000000     1.1630271888     1.2506899522
    2      C       0.0000000000     1.1924565650     2.6375120075
    3      C       0.0000000194    -0.0125829624     3.3297567924
    4      C       0.0000000000    -1.2046876732     2.6135019040
    5      C      -0.0000000130    -1.1477619747     1.2286368412
    6      N       0.0000000000     0.0147258310     0.5748677575
    7      C       0.0000000213     0.0038864906    -2.0914589342
    8      H       0.0000000252     2.0686388910     0.6573804846
    9      H      -0.0000000069     2.1408466516     3.1563383504
   10      H      -0.0000000176    -0.0232859707     4.4117230141
   11      H      -0.0000000270    -2.1629611022     3.1138255467
   12      H       0.0000000000    -2.0402963475     0.6153127811
   13      H      -0.0000000560     1.1004442521    -2.1592913646
   14      H      -0.9519696091    -0.5437843618    -2.1514529009
   15      H       0.9519696555    -0.5437843583    -2.1514529205
   16      Cl     -0.0000000090     0.0033814803    -4.2621438118
 ----------------------------------------------------------------
 Nuclear Repulsion Energy =         367.67991709 hartrees
 There are       34 alpha and       34 beta electrons
 Applying Cartesian multipole field
    Component          Value
    ---------          -----
     (2,0,0)        1.00000E-10
     (0,2,0)        2.00000E-11
     (0,0,2)       -3.00000E-11
 Nucleus-field energy     =    -0.0000000555 hartrees
 Requested basis set is 6-311G(d,p)
 There are 79 shells and 200 basis functions
 A cutoff of  1.0D-11 yielded   2388 shell pairs
 There are     16041 function pairs (     17341 Cartesian)
 Smallest overlap matrix eigenvalue = 5.10E-04
 Guess from superposition of atomic densities
 Warning:  Energy on first SCF cycle will be non-variational
 SAD guess density has 68.000000 electrons

 -----------------------------------------------------------------------
  General SCF calculation program by
  Eric Jon Sundstrom, Paul Horn, Yuezhi Mao, Dmitri Zuev, Alec White,
  David Stuck, Shaama M.S., Shane Yost, Joonho Lee, David Small,
  Daniel Levine, Susi Lehtola, Hugh Burton, Evgeny Epifanovsky,
  Bang C. Huynh
 -----------------------------------------------------------------------
 Hartree-Fock
 using 20 threads for integral computing
 -------------------------------------------------------
 OpenMP Integral computing Module                
 Release: version 2.0, May 2017, Q-Chem Inc. Pleasanton 
 -------------------------------------------------------
 A restricted SCF calculation will be
 performed using DIIS
 SCF converges when DIIS error is below 1.0e-08
 ---------------------------------------
  Cycle       Energy         DIIS error
 ---------------------------------------
    1    -744.5968743827      4.83e-02  
    2    -742.1143932370      3.85e-03  
    3    -742.2093335285      1.64e-03  
    4    -742.2234228000      5.38e-04  
    5    -742.2254124401      8.49e-05  
    6    -742.2254752342      5.01e-05  
    7    -742.2254916705      1.37e-05  
    8    -742.2254951695      6.51e-06  
    9    -742.2254959193      2.91e-06  
   10    -742.2254960997      1.14e-06  
   11    -742.2254961390      4.05e-07  
   12    -742.2254961423      1.38e-07  
   13    -742.2254961426      4.39e-08  
   14    -742.2254961428      8.28e-09  Convergence criterion met
 ---------------------------------------
 SCF time:   CPU 44.33s  wall 2.00s 
 SCF   energy in the final basis set =     -742.2254961428
 Total energy in the final basis set =     -742.2254961428
 
 --------------------------------------------------------------
 
                    Orbital Energies (a.u.)
 --------------------------------------------------------------
 
 Alpha MOs
 -- Occupied --
******** -15.5878 -11.3321 -11.2977 -11.2976 -11.2795 -11.2623 -11.2623
-10.4842  -7.9519  -7.9500  -7.9500  -1.2859  -1.1102  -1.0609  -1.0355
 -0.9153  -0.8819  -0.8797  -0.7460  -0.6853  -0.6748  -0.6308  -0.6293
 -0.6243  -0.5988  -0.5662  -0.5453  -0.4565  -0.4054  -0.4008  -0.3905
 -0.3903  -0.3711
 -- Virtual --
  0.0898   0.1053   0.1091   0.1389   0.1495   0.1598   0.1874   0.1908
  0.2195   0.2244   0.2516   0.3129   0.3539   0.3872   0.4146   0.4231
  0.4241   0.4363   0.4390   0.4512   0.4832   0.4919   0.5285   0.5371
  0.5454   0.5664   0.5845   0.5934   0.6050   0.6084   0.6246   0.6464
  0.6960   0.7003   0.7259   0.7434   0.7610   0.7664   0.7781   0.7967
  0.8014   0.8178   0.8298   0.8669   0.9019   0.9076   0.9356   0.9634
[...]
    4  16.0100000
    5   7.0100000
    6   7.0100000
    7   6.0100000
 Gradient of SCF Energy
            1           2           3           4           5           6
    1   0.0000000   0.0000000  -0.0000000   0.0000000  -0.0000000  -0.0000000
    2   0.0000265  -0.0000104   0.0000064   0.0000065  -0.0000197   0.0000117
    3  -0.0000170   0.0000214  -0.0000144   0.0000074  -0.0000010  -0.0003912
            7           8           9          10          11          12
    1  -0.0000000  -0.0000000   0.0000000  -0.0000000   0.0000000   0.0000000
    2  -0.0000110  -0.0000146  -0.0000021  -0.0000018   0.0000020   0.0000132
    3   0.0012280  -0.0000002   0.0000059  -0.0000012   0.0000077  -0.0000039
           13          14          15          16
    1   0.0000000   0.0000468  -0.0000468   0.0000000
    2  -0.0000591   0.0000224   0.0000224   0.0000077
    3  -0.0001717  -0.0001781  -0.0001782  -0.0003134
 Max gradient component =       1.228E-03
 RMS gradient           =       1.971E-04
 Gradient time:  CPU 16.12 s  wall 0.81 s
 Geometry Optimization Parameters
   NAtoms,    NIC,     NZ,  NCons,   NDum,   NFix, NCnnct, MaxDiis
       16     144       0       0       0       0       0       0

 Cartesian Hessian Update
 Hessian updated using BFGS update


** GEOMETRY OPTIMIZATION IN DELOCALIZED INTERNAL COORDINATES **
   Searching for a Minimum

   Optimization Cycle:   6

                       Coordinates (Angstroms)
     ATOM                X               Y               Z
      1  C         0.0000004471    1.1650598176    1.0230445905
      2  C         0.0000006926    1.1858465015    2.3982434416
      3  C         0.0000000629   -0.0161673205    3.0813578024
      4  C        -0.0000005728   -1.2055506986    2.3675286866
      5  C        -0.0000007309   -1.1510441098    0.9980651665
      6  N        -0.0000003028    0.0169836834    0.3510226406
      7  C         0.0000000000    0.0115685569   -1.1220439551
      8  H         0.0000007254    2.0607793070    0.4344094865
      9  H         0.0000012637    2.1271763553    2.9115331081
     10  H         0.0000000933   -0.0295476283    4.1556142429
     11  H        -0.0000009794   -2.1583362634    2.8592729987
     12  H        -0.0000011567   -2.0293041702    0.3819468929
     13  H        -0.0000034114    1.0213904542   -1.4950294899
     14  H        -0.8803985708   -0.4915056039   -1.4907744816
     15  H         0.8804021421   -0.4914996292   -1.4907742152
     16  Cl        0.0000002569   -0.0075866523   -4.5896714158
   Point Group: c1    Number of degrees of freedom:    42


   Energy is   -745.840729249

 Hessian updated using BFGS update

 27 Hessian modes will be used to form the next step
  Hessian Eigenvalues:
     0.018971    0.020920    0.067033    0.108613    0.114955    0.159987
     0.159999    0.160079    0.160663    0.219997    0.220236    0.243722
     0.250808    0.309852    0.341566    0.366859    0.368778    0.369527
     0.369551    0.370238    0.449930    0.455089    0.488423    0.505504
     0.563549    0.583756    1.507425

 Minimum search - taking simple RFO step
 Searching for Lamda that Minimizes Along All modes
 Value Taken    Lamda =  -0.00000160
 Step Taken.  Stepsize is  0.008035

                             Maximum     Tolerance    Cnvgd?
         Gradient           0.000454      0.000300      NO
         Displacement       0.005540      0.001200      NO
         Energy change     -0.000004      0.000001      NO


 New Cartesian Coordinates Obtained by Inverse Iteration

 Displacement from previous Coordinates is:  0.003524
 Array in AddRestraintEnergy
            1
    1   2.0010000
    2   2.0000000
    31000.0000000
    4  16.0100000
    5   7.0100000
    6   7.0100000
    7   6.0100000
 I:1 Type:2 Value:  2.000 K=    1.594 R12=  3.468 R34=  1.474 R12-R34=  1.994 EI=   0.0000492 E= 372.6235252
 ----------------------------------------------------------------
             Standard Nuclear Orientation (Angstroms)
    I     Atom           X                Y                Z
 ----------------------------------------------------------------
    1      C       0.0000005046     1.1650622962     1.0230294901
    2      C       0.0000006418     1.1858265047     2.3982111057
    3      C      -0.0000000401    -0.0162068712     3.0813270740
    4      C      -0.0000005467    -1.2055467705     2.3674179972
    5      C      -0.0000007244    -1.1509515598     0.9979539938
    6      N      -0.0000002973     0.0170553030     0.3509235973
    7      C      -0.0000000193     0.0116172415    -1.1226265545
    8      H       0.0000009701     2.0608811873     0.4345055796
    9      H       0.0000011094     2.1271643511     2.9114821802
   10      H       0.0000001003    -0.0296043808     4.1555867324
   11      H      -0.0000008730    -2.1583859088     2.8590507710
   12      H      -0.0000011869    -2.0292697280     0.3818876779
   13      H      -0.0000034122     1.0218382354    -1.4944033434
   14      H      -0.8807694741    -0.4916614943    -1.4900116392
   15      H       0.8807730002    -0.4916555163    -1.4900113854
   16      Cl      0.0000002067    -0.0079002898    -4.5905777772
 ----------------------------------------------------------------
 Nuclear Repulsion Energy =         372.62357435 hartrees
 There are       34 alpha and       34 beta electrons
 Applying Cartesian multipole field
    Component          Value
    ---------          -----
     (2,0,0)        1.00000E-10
     (0,2,0)        2.00000E-11
     (0,0,2)       -3.00000E-11
 Nucleus-field energy     =    -0.0000000541 hartrees
 Requested basis set is 6-311G(d,p)
 There are 79 shells and 200 basis functions
 A cutoff of  1.0D-11 yielded   2485 shell pairs
 There are     16803 function pairs (     18191 Cartesian)
 Smallest overlap matrix eigenvalue = 4.49E-04
 Guess from superposition of atomic densities
 Warning:  Energy on first SCF cycle will be non-variational
 SAD guess density has 68.000000 electrons

 -----------------------------------------------------------------------
  General SCF calculation program by
  Eric Jon Sundstrom, Paul Horn, Yuezhi Mao, Dmitri Zuev, Alec White,
  David Stuck, Shaama M.S., Shane Yost, Joonho Lee, David Small,
  Daniel Levine, Susi Lehtola, Hugh Burton, Evgeny Epifanovsky,
  Bang C. Huynh
 -----------------------------------------------------------------------
 Hartree-Fock
 using 20 threads for integral computing
 -------------------------------------------------------
 OpenMP Integral computing Module                
 Release: version 2.0, May 2017, Q-Chem Inc. Pleasanton 
 -------------------------------------------------------
 A restricted SCF calculation will be
 performed using DIIS
 SCF converges when DIIS error is below 1.0e-08
 ---------------------------------------
  Cycle       Energy         DIIS error
 ---------------------------------------
    1    -748.9045861545      5.18e-02  
    2    -745.6807852496      4.80e-03  
    3    -745.8102455924      2.54e-03  
    4    -745.8377395714      6.94e-04  
    5    -745.8404349331      2.38e-04  
    6    -745.8407111203      3.46e-05  
    7    -745.8407262935      1.30e-05  
    8    -745.8407291653      5.83e-06  
    9    -745.8407298284      2.86e-06  
   10    -745.8407300371      1.11e-06  
   11    -745.8407300680      3.23e-07  
   12    -745.8407300695      8.47e-08  
   13    -745.8407300697      2.10e-08  
   14    -745.8407300699      9.25e-09  Convergence criterion met
 ---------------------------------------
 SCF time:   CPU 47.05s  wall 2.00s 
 SCF   energy in the final basis set =     -745.8407300699
 Total energy in the final basis set =     -745.8407300699
 
 --------------------------------------------------------------
 
                    Orbital Energies (a.u.)
 --------------------------------------------------------------
 
 Alpha MOs
 -- Occupied --
******** -15.7523 -11.3963 -11.3941 -11.3635 -11.3419 -11.3414 -11.3094
-10.3338  -7.8007  -7.8006  -7.8006  -1.4397  -1.2217  -1.1644  -1.0528
 -0.9929  -0.9565  -0.8417  -0.8295  -0.7944  -0.7640  -0.7235  -0.7208
 -0.7176  -0.6352  -0.6239  -0.6119  -0.6052  -0.4935  -0.4597  -0.2604
 -0.2575  -0.2574
 -- Virtual --
 -0.0124   0.0265   0.0825   0.1122   0.1206   0.1527   0.1569   0.2005
  0.2005   0.2385   0.2531   0.2584   0.3296   0.3372   0.3447   0.3581
  0.3875   0.3888   0.4077   0.4388   0.4627   0.4756   0.5025   0.5210
  0.5222   0.5460   0.5600   0.5647   0.5963   0.6048   0.6160   0.6346
  0.6370   0.6425   0.6857   0.6874   0.7128   0.7244   0.7299   0.7492
  0.7588   0.7639   0.7826   0.8287   0.8403   0.8447   0.8744   0.9225
  0.9359   0.9588   0.9703   1.0196   1.0522   1.0742   1.0859   1.1311
  1.1574   1.1712   1.2141   1.2241   1.2244   1.2719   1.3337   1.3639
  1.3639   1.3653   1.3657   1.3663   1.4189   1.4925   1.5578   1.5743
  1.6042   1.6309   1.6755   1.6818   1.7041   1.7107   1.7152   1.7253
  1.7666   1.7930   1.8471   1.8494   1.8847   1.9022   1.9084   1.9242
  1.9553   1.9605   2.0196   2.0357   2.0624   2.0904   2.1073   2.1373
  2.1401   2.2192   2.2536   2.2838   2.3068   2.3104   2.3231   2.4579
  2.4655   2.5102   2.5784   2.5893   2.6263   2.6541   2.6756   2.6766
  2.6816   2.6829   2.7110   2.7293   2.7489   2.7901   2.8099   2.8204
  2.8338   2.8515   2.8596   2.8845   2.9010   2.9270   2.9369   3.0018
  3.0302   3.0433   3.0591   3.1536   3.2114   3.2276   3.2370   3.2921
  3.3623   3.5425   3.6585   3.7670   3.7798   3.8336   3.9454   4.0721
  4.0948   4.0967   4.2063   4.2818   4.3062   4.3528   4.4347   4.7421
  5.3286   5.6110  10.2656  24.6779  24.9702  25.0478  25.0882  25.1966
 25.2511  26.4560  26.4625  26.5588  36.8963 219.0612
 --------------------------------------------------------------
 
          Ground-State Mulliken Net Atomic Charges

     Atom                 Charge (a.u.)
  ----------------------------------------
      1 C                     0.273706
      2 C                    -0.252164
      3 C                     0.098082
      4 C                    -0.246088
      5 C                     0.271309
      6 N                    -0.432476
      7 C                    -0.095410
      8 H                     0.184602
      9 H                     0.154771
     10 H                     0.155501
     11 H                     0.154665
     12 H                     0.184268
     13 H                     0.149685
     14 H                     0.181490
     15 H                     0.181490
     16 Cl                   -0.963432
  ----------------------------------------
  Sum of atomic charges =     0.000000

 -----------------------------------------------------------------
                    Cartesian Multipole Moments
 -----------------------------------------------------------------
    Charge (ESU x 10^10)
                -0.0000
    Dipole Moment (Debye)
         X      -0.0000      Y       0.0357      Z      24.3661
       Tot      24.3661
    Quadrupole Moments (Debye-Ang)
        XX     -59.1469     XY       0.0000     YY     -45.3445
        XZ       0.0000     YZ      -0.1737     ZZ    -132.8695
    Octopole Moments (Debye-Ang^2)
       XXX       0.0000    XXY      -0.7672    XYY      -0.0000
       YYY       1.2392    XXZ      18.5678    XYZ       0.0000
       YYZ      40.2240    XZZ      -0.0000    YZZ       0.6578
       ZZZ     576.1998
    Hexadecapole Moments (Debye-Ang^3)
      XXXX     -74.3231   XXXY      -0.0001   XXYY     -67.1629
      XYYY      -0.0000   YYYY    -245.0728   XXXZ       0.0000
      XXYZ       0.9843   XYYZ       0.0000   YYYZ      -2.6974
      XXZZ    -534.1092   XYZZ       0.0000   YYZZ    -515.3966
      XZZZ       0.0001   YZZZ      -5.5314   ZZZZ   -4790.7719
 -----------------------------------------------------------------
 Calculating analytic gradient of the SCF energy
 Array in AddRestraintEnergy
            1
    1   2.0010000
    2   2.0000000
    31000.0000000
    4  16.0100000
    5   7.0100000
    6   7.0100000
    7   6.0100000
 Gradient of SCF Energy
            1           2           3           4           5           6
    1   0.0000000   0.0000000  -0.0000000   0.0000000   0.0000000  -0.0000000
    2   0.0000021   0.0000032  -0.0000014  -0.0000026   0.0000022   0.0000137
    3   0.0000154  -0.0000062   0.0000006  -0.0000007   0.0000082  -0.0000601
            7           8           9          10          11          12
    1  -0.0000000   0.0000000  -0.0000000   0.0000000   0.0000000   0.0000000
    2  -0.0000239  -0.0000006  -0.0000016   0.0000004   0.0000020   0.0000004
    3   0.0001094  -0.0000026   0.0000008   0.0000020   0.0000004  -0.0000022
           13          14          15          16
    1   0.0000000  -0.0000032   0.0000032   0.0000000
    2   0.0000004  -0.0000018  -0.0000018   0.0000093
    3  -0.0000074  -0.0000030  -0.0000030  -0.0000515
 Max gradient component =       1.094E-04
 RMS gradient           =       2.020E-05
 Gradient time:  CPU 16.21 s  wall 0.81 s
 Geometry Optimization Parameters
   NAtoms,    NIC,     NZ,  NCons,   NDum,   NFix, NCnnct, MaxDiis
       16     144       0       0       0       0       0       0

 Cartesian Hessian Update
 Hessian updated using BFGS update


** GEOMETRY OPTIMIZATION IN DELOCALIZED INTERNAL COORDINATES **
   Searching for a Minimum

   Optimization Cycle:   7

                       Coordinates (Angstroms)
     ATOM                X               Y               Z
      1  C         0.0000005046    1.1650622962    1.0230294901
      2  C         0.0000006418    1.1858265047    2.3982111057
      3  C        -0.0000000401   -0.0162068712    3.0813270740
      4  C        -0.0000005467   -1.2055467705    2.3674179972
      5  C        -0.0000007244   -1.1509515598    0.9979539938
      6  N        -0.0000002973    0.0170553030    0.3509235973
      7  C        -0.0000000193    0.0116172415   -1.1226265545
      8  H         0.0000009701    2.0608811873    0.4345055796
      9  H         0.0000011094    2.1271643511    2.9114821802
     10  H         0.0000001003   -0.0296043808    4.1555867324
     11  H        -0.0000008730   -2.1583859088    2.8590507710
     12  H        -0.0000011869   -2.0292697280    0.3818876779
     13  H        -0.0000034122    1.0218382354   -1.4944033434
     14  H        -0.8807694741   -0.4916614943   -1.4900116392
     15  H         0.8807730002   -0.4916555163   -1.4900113854
     16  Cl        0.0000002067   -0.0079002898   -4.5905777772
   Point Group: c1    Number of degrees of freedom:    42


   Energy is   -745.840730070

 Hessian updated using BFGS update

 41 Hessian modes will be used to form the next step
  Hessian Eigenvalues:
     0.003778    0.012780    0.019135    0.020974    0.021198    0.024390
     0.024470    0.024906    0.025035    0.025225    0.025268    0.025374
     0.025607    0.066828    0.067046    0.106345    0.115456    0.159980
     0.160000    0.160000    0.160075    0.160511    0.219996    0.220237
     0.243717    0.250812    0.308941    0.309841    0.341411    0.366864
     0.368787    0.369532    0.369553    0.370255    0.449946    0.455050
     0.488466    0.505551    0.563499    0.583744    1.479560

 Minimum search - taking simple RFO step
 Searching for Lamda that Minimizes Along All modes
 Value Taken    Lamda =  -0.00000001
 Step Taken.  Stepsize is  0.000230

                             Maximum     Tolerance    Cnvgd?
         Gradient           0.000040      0.000300     YES
         Displacement       0.000115      0.001200     YES
         Energy change     -0.000001      0.000001     YES

 Final energy is   -745.840730069905     


 ******************************
 **  OPTIMIZATION CONVERGED  **
 ******************************

                       Coordinates (Angstroms)
     ATOM                X               Y               Z
      1  C         0.0000005046    1.1650622962    1.0230294901
      2  C         0.0000006418    1.1858265047    2.3982111057
      3  C        -0.0000000401   -0.0162068712    3.0813270740
      4  C        -0.0000005467   -1.2055467705    2.3674179972
      5  C        -0.0000007244   -1.1509515598    0.9979539938
      6  N        -0.0000002973    0.0170553030    0.3509235973
      7  C        -0.0000000193    0.0116172415   -1.1226265545
      8  H         0.0000009701    2.0608811873    0.4345055796
      9  H         0.0000011094    2.1271643511    2.9114821802
     10  H         0.0000001003   -0.0296043808    4.1555867324
     11  H        -0.0000008730   -2.1583859088    2.8590507710
     12  H        -0.0000011869   -2.0292697280    0.3818876779
     13  H        -0.0000034122    1.0218382354   -1.4944033434
     14  H        -0.8807694741   -0.4916614943   -1.4900116392
     15  H         0.8807730002   -0.4916555163   -1.4900113854
     16  Cl        0.0000002067   -0.0079002898   -4.5905777772

Z-matrix Print:
$molecule
0 1
N 
C  1 1.330281
H  2 1.071845 1 116.349353
C  1 1.335248 2 120.668219 3 180.000000 0
H  4 1.072838 1 115.968822 2 -180.000000 0
C  4 1.370552 1 121.267700 2 0.000000 0
H  6 1.072196 4 119.575155 1 -180.000000 0
C  2 1.375338 1 121.212090 3 180.000000 0
H  8 1.072177 2 119.466794 1 -180.000000 0
C  8 1.382582 2 118.744526 1 0.000000 0
H  10 1.074343 8 120.324105 2 180.000000 0
C  1 1.473560 2 120.558479 3 0.000000 0
H  12 1.076459 1 109.992941 2 -0.000000 0
H  12 1.078896 1 110.013317 2 -119.677337 0
H  12 1.078896 1 110.013320 2 119.676855 0
Cl 14 3.259339 12 91.953640 1 -179.897321 0
$end

PES scan, value:    2.0000 energy: -745.8407300699
------- Summary of potential scan: ------ 
   -2.0000      -745.8831338383
   -1.9000      -745.8832544735
   -1.8000      -745.8833482697
   -1.7000      -745.8834027215
   -1.6000      -745.8834024380
   -1.5000      -745.8833237837
   -1.4000      -745.8831334216
   -1.3000      -745.8827856667
   -1.2000      -745.8822210331
   -1.1000      -745.8813662842
   -1.0000      -745.8801368337
   -0.9000      -745.8784407652
   -0.8000      -745.8761887204
   -0.7000      -745.8733085675
   -0.6000      -745.8697605852
   -0.5000      -745.8655416560
   -0.4000      -745.8607357237
   -0.3000      -745.8555003939
   -0.2000      -745.8500654875
   -0.1000      -745.8446686457
    0.0000      -745.8395778678
    0.1000      -745.8350226527
    0.2000      -745.8311954366
    0.3000      -745.8282666129
    0.4000      -745.8264047922
    0.5000      -745.8257833412
    0.6000      -745.8265283682
    0.7000      -745.8285924853
    0.8000      -745.8316553689
    0.9000      -745.8351983466
    1.0000      -745.8386933192
    1.1000      -745.8417399766
    1.2000      -745.8441026942
    1.3000      -745.8456893267
    1.4000      -745.8465102371
    1.5000      -745.8466396419
    1.6000      -745.8461842889
    1.7000      -745.8452608959
    1.8000      -745.8439813650
    1.9000      -745.8424440768
    2.0000      -745.8407300699
----------------------------------------- 
Archival summary:
1\1\c193.oscer.ou.edu\JobtypUnspecified\HF\6-311G**\l1168\yangjunj\ThuSep2920:35:022022ThuSep2920:35:022022\0\\#,JobtypUnspecified,HF,6-311G**,\\0,1\N\C,1,1.33028\H,2,1.07185,1,116.349\C,1,1.33525,2,120.668,3,180,0\H,4,1.07284,1,115.969,2,-180,0\C,4,1.37055,1,121.268,2,0,0\H,6,1.0722,4,119.575,1,-180,0\C,2,1.37534,1,121.212,3,180,0\H,8,1.07218,2,119.467,1,-180,0\C,8,1.38258,2,118.745,1,0,0\H,10,1.07434,8,120.324,2,180,0\C,1,1.47356,2,120.558,3,0,0\H,12,1.07646,1,109.993,2,-0,0\H,12,1.0789,1,110.013,2,-119.677,0\H,12,1.0789,1,110.013,2,119.677,0\Cl,14,3.25934,12,91.9536,1,-179.897,0\\HF=-745.84073\\@

 Total job time:  1163.08s(wall), 21549.54s(cpu) 
 Thu Sep 29 20:35:02 2022

        *************************************************************
        *                                                           *
        *  Thank you very much for using Q-Chem.  Have a nice day.  *
        *                                                           *
        *************************************************************
